ITEM: TIMESTEP
0
ITEM: NUMBER OF ATOMS
961
ITEM: BOX BOUNDS ff ff pp
0 80
0 40
-1 1
ITEM: ATOMS x c_ps v_speed 
0.65 0 0.215481 
1.95 0 0.0294261 
3.25 0 0.0691508 
4.55 0 0.320134 
5.85 0 0.0882573 
7.15 0 0.13548 
8.45 0 0.159667 
9.75 0 0.241782 
11.05 0 0.0420402 
12.35 0 0.24033 
13.65 0 0.170475 
14.95 0 0.116406 
16.25 0 0.241217 
17.55 0 0.246716 
18.85 0 0.15432 
20.15 0 0.00432614 
21.45 0 0.270847 
22.75 0 0.0796654 
24.05 0 0.326788 
25.35 0 0.329995 
26.65 0 0.144602 
27.95 0 0.0423855 
29.25 0 0.176822 
30.55 0 0.140678 
31.85 0 0.160175 
33.15 0 0.0925125 
34.45 0 0.409375 
35.75 0 0.0780265 
37.05 0 0.440941 
38.35 0 0.140597 
39.65 0 0.0952352 
0.65 0 0.0704336 
1.95 0 0.154766 
3.25 0 0.125794 
4.55 0 0.293093 
5.85 0 0.148515 
7.15 0 0.0770686 
8.45 0 0.0310886 
9.75 0 0.160117 
11.05 0 0.235618 
12.35 0 0.0582941 
13.65 0 0.200987 
14.95 0 0.179616 
16.25 0 0.283959 
17.55 0 0.150729 
18.85 0 0.090453 
20.15 0 0.0975943 
21.45 0 0.225481 
22.75 0 0.175061 
24.05 0 0.0855921 
25.35 0 0.466249 
26.65 0 0.0677312 
27.95 0 0.0631784 
29.25 0 0.150613 
30.55 0 0.115318 
31.85 0 0.409661 
33.15 0 0.142644 
34.45 0 0.0742789 
35.75 0 0.150863 
37.05 0 0.176976 
38.35 0 0.24606 
39.65 0 0.224532 
0.65 0 0.0394306 
1.95 0 0.195466 
3.25 0 0.132697 
4.55 0 0.172658 
5.85 0 0.278265 
7.15 0 0.170301 
8.45 0 0.221629 
9.75 0 0.123309 
11.05 0 0.1956 
12.35 0 0.0909817 
13.65 0 0.223008 
14.95 0 0.163934 
16.25 0 0.238524 
17.55 0 0.085346 
18.85 0 0.165567 
20.15 0 0.0704023 
21.45 0 0.194707 
22.75 0 0.166501 
24.05 0 0.248305 
25.35 0 0.130499 
26.65 0 0.0990555 
27.95 0 0.362134 
29.25 0 0.22404 
30.55 0 0.152043 
31.85 0 0.178671 
33.15 0 0.157581 
34.45 0 0.261919 
35.75 0 0.145755 
37.05 0 0.330389 
38.35 0 0.0887993 
39.65 0 0.208622 
0.65 0 0.286862 
1.95 0 0.0243936 
3.25 0 0.0651576 
4.55 0 0.292806 
5.85 0 0.264135 
7.15 0 0.415846 
8.45 0 0.208857 
9.75 0 0.114639 
11.05 0 0.266641 
12.35 0 0.242967 
13.65 0 0.143284 
14.95 0 0.110629 
16.25 0 0.116283 
17.55 0 0.356787 
18.85 0 0.208967 
20.15 0 0.289618 
21.45 0 0.282304 
22.75 0 0.162496 
24.05 0 0.256465 
25.35 0 0.187334 
26.65 0 0.191664 
27.95 0 0.158139 
29.25 0 0.111078 
30.55 0 0.222439 
31.85 0 0.382139 
33.15 0 0.26912 
34.45 0 0.251662 
35.75 0 0.0849222 
37.05 0 0.0894356 
38.35 0 0.159813 
39.65 0 0.279689 
0.65 0 0.0564477 
1.95 0 0.231365 
3.25 0 0.0879015 
4.55 0 0.21525 
5.85 0 0.198806 
7.15 0 0.159544 
8.45 0 0.139525 
9.75 0 0.241669 
11.05 0 0.142802 
12.35 0 0.119466 
13.65 0 0.0610278 
14.95 0 0.213033 
16.25 0 0.0887273 
17.55 0 0.375356 
18.85 0 0.278311 
20.15 0 0.0900434 
21.45 0 0.0861926 
22.75 0 0.138988 
24.05 0 0.146049 
25.35 0 0.130014 
26.65 0 0.0836852 
27.95 0 0.144631 
29.25 0 0.274643 
30.55 0 0.334112 
31.85 0 0.115721 
33.15 0 0.0436007 
34.45 0 0.187914 
35.75 0 0.120234 
37.05 0 0.221996 
38.35 0 0.142202 
39.65 0 0.0191366 
0.65 0 0.244492 
1.95 0 0.172549 
3.25 0 0.0691343 
4.55 0 0.0704613 
5.85 0 0.180021 
7.15 0 0.106365 
8.45 0 0.169726 
9.75 0 0.231818 
11.05 0 0.223475 
12.35 0 0.385525 
13.65 0 0.07485 
14.95 0 0.210905 
16.25 0 0.140968 
17.55 0 0.327978 
18.85 0 0.113423 
20.15 0 0.151107 
21.45 0 0.192298 
22.75 0 0.0523863 
24.05 0 0.147378 
25.35 0 0.282704 
26.65 0 0.223457 
27.95 0 0.308451 
29.25 0 0.125853 
30.55 0 0.104554 
31.85 0 0.198906 
33.15 0 0.100427 
34.45 0 0.30332 
35.75 0 0.0476506 
37.05 0 0.272441 
38.35 0 0.13109 
39.65 0 0.401968 
0.65 0 0.333031 
1.95 0 0.160379 
3.25 0 0.015892 
4.55 0 0.128219 
5.85 0 0.300782 
7.15 0 0.393237 
8.45 0 0.35896 
9.75 0 0.247167 
11.05 0 0.225822 
12.35 0 0.346645 
13.65 0 0.151106 
14.95 0 0.102075 
16.25 0 0.11753 
17.55 0 0.223878 
18.85 0 0.128472 
20.15 0 0.275928 
21.45 0 0.183711 
22.75 0 0.161038 
24.05 0 0.193406 
25.35 0 0.220158 
26.65 0 0.0576066 
27.95 0 0.0859436 
29.25 0 0.285905 
30.55 0 0.0921945 
31.85 0 0.0587592 
33.15 0 0.205744 
34.45 0 0.13881 
35.75 0 0.106702 
37.05 0 0.339646 
38.35 0 0.158155 
39.65 0 0.176219 
0.65 0 0.116305 
1.95 0 0.16848 
3.25 0 0.194014 
4.55 0 0.0720748 
5.85 0 0.0420476 
7.15 0 0.129172 
8.45 0 0.128224 
9.75 0 0.166669 
11.05 0 0.194932 
12.35 0 0.0986079 
13.65 0 0.124359 
14.95 0 0.502936 
16.25 0 0.412661 
17.55 0 0.124253 
18.85 0 0.0859192 
20.15 0 0.0589312 
21.45 0 0.370015 
22.75 0 0.300954 
24.05 0 0.273746 
25.35 0 0.240437 
26.65 0 0.0928143 
27.95 0 0.0428696 
29.25 0 0.237279 
30.55 0 0.271339 
31.85 0 0.183314 
33.15 0 0.22299 
34.45 0 0.123271 
35.75 0 0.333206 
37.05 0 0.153877 
38.35 0 0.136284 
39.65 0 0.170445 
0.65 0 0.189379 
1.95 0 0.25382 
3.25 0 0.251015 
4.55 0 0.32124 
5.85 0 0.19847 
7.15 0 0.183888 
8.45 0 0.167468 
9.75 0 0.132092 
11.05 0 0.0784326 
12.35 0 0.285493 
13.65 0 0.096993 
14.95 0 0.251096 
16.25 0 0.0645763 
17.55 0 0.200168 
18.85 0 0.145834 
20.15 0 0.194948 
21.45 0 0.226874 
22.75 0 0.153383 
24.05 0 0.170184 
25.35 0 0.339851 
26.65 0 0.186638 
27.95 0 0.103889 
29.25 0 0.0285055 
30.55 0 0.222022 
31.85 0 0.140014 
33.15 0 0.116242 
34.45 0 0.304727 
35.75 0 0.123979 
37.05 0 0.263038 
38.35 0 0.125409 
39.65 0 0.174562 
0.65 0 0.0709518 
1.95 0 0.15604 
3.25 0 0.0186836 
4.55 0 0.0768393 
5.85 0 0.262905 
7.15 0 0.289349 
8.45 0 0.0356846 
9.75 0 0.231178 
11.05 0 0.0881453 
12.35 0 0.210363 
13.65 0 0.0885967 
14.95 0 0.157535 
16.25 0 0.285603 
17.55 0 0.135766 
18.85 0 0.19175 
20.15 0 0.27273 
21.45 0 0.0921581 
22.75 0 0.113948 
24.05 0 0.132386 
25.35 0 0.210888 
26.65 0 0.196133 
27.95 0 0.203469 
29.25 0 0.147261 
30.55 0 0.198838 
31.85 0 0.140956 
33.15 0 0.0745793 
34.45 0 0.198153 
35.75 0 0.178495 
37.05 0 0.208321 
38.35 0 0.074492 
39.65 0 0.174097 
0.65 0 0.0958896 
1.95 0 0.127018 
3.25 0 0.255155 
4.55 0 0.18387 
5.85 0 0.104218 
7.15 0 0.201484 
8.45 0 0.131617 
9.75 0 0.0949855 
11.05 0 0.1437 
12.35 0 0.12764 
13.65 0 0.0374044 
14.95 0 0.230598 
16.25 0 0.0599114 
17.55 0 0.0478961 
18.85 0 0.103766 
20.15 0 0.245134 
21.45 0 0.100405 
22.75 0 0.140698 
24.05 0 0.182614 
25.35 0 0.262578 
26.65 0 0.292224 
27.95 0 0.161047 
29.25 0 0.347737 
30.55 0 0.0360856 
31.85 0 0.0951989 
33.15 0 0.0847978 
34.45 0 0.233396 
35.75 0 0.196565 
37.05 0 0.0986827 
38.35 0 0.318818 
39.65 0 0.270798 
0.65 0 0.252758 
1.95 0 0.132507 
3.25 0 0.239311 
4.55 0 0.297059 
5.85 0 0.21384 
7.15 0 0.268867 
8.45 0 0.284206 
9.75 0 0.198458 
11.05 0 0.150517 
12.35 0 0.13847 
13.65 0 0.379868 
14.95 0 0.153891 
16.25 0 0.140435 
17.55 0 0.238064 
18.85 0 0.12563 
20.15 0 0.262894 
21.45 0 0.437561 
22.75 0 0.0934108 
24.05 0 0.245996 
25.35 0 0.235717 
26.65 0 0.211695 
27.95 0 0.323059 
29.25 0 0.125214 
30.55 0 0.142458 
31.85 0 0.00573982 
33.15 0 0.10643 
34.45 0 0.106257 
35.75 0 0.158726 
37.05 0 0.0714952 
38.35 0 0.0185773 
39.65 0 0.0662667 
0.65 0 0.0462352 
1.95 0 0.328276 
3.25 0 0.0562434 
4.55 0 0.106453 
5.85 0 0.201166 
7.15 0 0.0932206 
8.45 0 0.0841899 
9.75 0 0.143155 
11.05 0 0.281306 
12.35 0 0.0438236 
13.65 0 0.147197 
14.95 0 0.142993 
16.25 0 0.112084 
17.55 0 0.244712 
18.85 0 0.228449 
20.15 0 0.336244 
21.45 0 0.138277 
22.75 0 0.131525 
24.05 0 0.251307 
25.35 0 0.356245 
26.65 0 0.201683 
27.95 0 0.16304 
29.25 0 0.268728 
30.55 0 0.0662833 
31.85 0 0.166155 
33.15 0 0.108195 
34.45 0 0.135394 
35.75 0 0.196135 
37.05 0 0.278246 
38.35 0 0.0874306 
39.65 0 0.417845 
0.65 0 0.282967 
1.95 0 0.0436329 
3.25 0 0.112807 
4.55 0 0.073379 
5.85 0 0.0682579 
7.15 0 0.272009 
8.45 0 0.0635495 
9.75 0 0.218221 
11.05 0 0.279627 
12.35 0 0.126744 
13.65 0 0.104044 
14.95 0 0.0824947 
16.25 0 0.167072 
17.55 0 0.316483 
18.85 0 0.187668 
20.15 0 0.0180519 
21.45 0 0.137193 
22.75 0 0.187714 
24.05 0 0.0990581 
25.35 0 0.124683 
26.65 0 0.22287 
27.95 0 0.214814 
29.25 0 0.204742 
30.55 0 0.40528 
31.85 0 0.174365 
33.15 0 0.133687 
34.45 0 0.182984 
35.75 0 0.183754 
37.05 0 0.201678 
38.35 0 0.0368297 
39.65 0 0.034649 
0.65 0 0.0969855 
1.95 0 0.11203 
3.25 0 0.311785 
4.55 0 0.185334 
5.85 0 0.0460747 
7.15 0 0.112169 
8.45 0 0.220064 
9.75 0 0.157948 
11.05 0 0.138846 
12.35 0 0.178268 
13.65 0 0.31987 
14.95 0 0.134734 
16.25 0 0.291132 
17.55 0 0.27857 
18.85 0 0.151981 
20.15 0 0.575157 
21.45 0 0.105264 
22.75 0 0.215525 
24.05 0 0.0926794 
25.35 0 0.0612433 
26.65 0 0.242563 
27.95 0 0.0477803 
29.25 0 0.0690956 
30.55 0 0.0940606 
31.85 0 0.143964 
33.15 0 0.148044 
34.45 0 0.174258 
35.75 0 0.287993 
37.05 0 0.111779 
38.35 0 0.232038 
39.65 0 0.0898055 
0.65 0 0.0941422 
1.95 0 0.113669 
3.25 0 0.257517 
4.55 0 0.273023 
5.85 0 0.155187 
7.15 0 0.19661 
8.45 0 0.244612 
9.75 0 0.152112 
11.05 0 0.124732 
12.35 0 0.119344 
13.65 0 0.226423 
14.95 0 0.228959 
16.25 0 0.203261 
17.55 0 0.189059 
18.85 0 0.255647 
20.15 0 0.18505 
21.45 0 0.330572 
22.75 0 0.225555 
24.05 0 0.110626 
25.35 0 0.29858 
26.65 0 0.135748 
27.95 0 0.103712 
29.25 0 0.160334 
30.55 0 0.0762764 
31.85 0 0.0750427 
33.15 0 0.124265 
34.45 0 0.222987 
35.75 0 0.196961 
37.05 0 0.187091 
38.35 0 0.171161 
39.65 0 0.342429 
0.65 0 0.308172 
1.95 0 0.0595911 
3.25 0 0.186413 
4.55 0 0.1156 
5.85 0 0.23962 
7.15 0 0.0500087 
8.45 0 0.158857 
9.75 0 0.150482 
11.05 0 0.134144 
12.35 0 0.141402 
13.65 0 0.0789189 
14.95 0 0.29972 
16.25 0 0.0434051 
17.55 0 0.129861 
18.85 0 0.25746 
20.15 0 0.29338 
21.45 0 0.18987 
22.75 0 0.188025 
24.05 0 0.148428 
25.35 0 0.216496 
26.65 0 0.390652 
27.95 0 0.129818 
29.25 0 0.0954384 
30.55 0 0.0766812 
31.85 0 0.218102 
33.15 0 0.0924409 
34.45 0 0.128973 
35.75 0 0.0336507 
37.05 0 0.192718 
38.35 0 0.152809 
39.65 0 0.068663 
0.65 0 0.192062 
1.95 0 0.238271 
3.25 0 0.197829 
4.55 0 0.143604 
5.85 0 0.170996 
7.15 0 0.182572 
8.45 0 0.193007 
9.75 0 0.0946642 
11.05 0 0.232676 
12.35 0 0.399966 
13.65 0 0.1767 
14.95 0 0.289717 
16.25 0 0.0259221 
17.55 0 0.352337 
18.85 0 0.129504 
20.15 0 0.127084 
21.45 0 0.210306 
22.75 0 0.353573 
24.05 0 0.205931 
25.35 0 0.196727 
26.65 0 0.353483 
27.95 0 0.142165 
29.25 0 0.0431907 
30.55 0 0.0961393 
31.85 0 0.38408 
33.15 0 0.249962 
34.45 0 0.179494 
35.75 0 0.261065 
37.05 0 0.14851 
38.35 0 0.0916296 
39.65 0 0.0361752 
0.65 0 0.118673 
1.95 0 0.0762825 
3.25 0 0.167898 
4.55 0 0.0155978 
5.85 0 0.0676024 
7.15 0 0.0889454 
8.45 0 0.313744 
9.75 0 0.178402 
11.05 0 0.172036 
12.35 0 0.128176 
13.65 0 0.138782 
14.95 0 0.181668 
16.25 0 0.111137 
17.55 0 0.22075 
18.85 0 0.0349588 
20.15 0 0.0709397 
21.45 0 0.165208 
22.75 0 0.128552 
24.05 0 0.152356 
25.35 0 0.221146 
26.65 0 0.191473 
27.95 0 0.241838 
29.25 0 0.161943 
30.55 0 0.0253767 
31.85 0 0.134869 
33.15 0 0.156501 
34.45 0 0.187175 
35.75 0 0.213461 
37.05 0 0.116125 
38.35 0 0.0573642 
39.65 0 0.156178 
0.65 0 0.120174 
1.95 0 0.270429 
3.25 0 0.107591 
4.55 0 0.195306 
5.85 0 0.0881398 
7.15 0 0.260657 
8.45 0 0.120395 
9.75 0 0.280673 
11.05 0 0.293465 
12.35 0 0.168161 
13.65 0 0.120084 
14.95 0 0.15417 
16.25 0 0.105453 
17.55 0 0.0353624 
18.85 0 0.270909 
20.15 0 0.0176255 
21.45 0 0.166756 
22.75 0 0.557606 
24.05 0 0.165086 
25.35 0 0.175321 
26.65 0 0.275251 
27.95 0 0.224594 
29.25 0 0.0824305 
30.55 0 0.185669 
31.85 0 0.0730953 
33.15 0 0.197194 
34.45 0 0.110199 
35.75 0 0.0915513 
37.05 0 0.226327 
38.35 0 0.106463 
39.65 0 0.250183 
0.65 0 0.292525 
1.95 0 0.215032 
3.25 0 0.137049 
4.55 0 0.131512 
5.85 0 0.19038 
7.15 0 0.158598 
8.45 0 0.101295 
9.75 0 0.26704 
11.05 0 0.0334393 
12.35 0 0.128705 
13.65 0 0.191388 
14.95 0 0.219198 
16.25 0 0.269948 
17.55 0 0.33096 
18.85 0 0.124282 
20.15 0 0.270045 
21.45 0 0.215768 
22.75 0 0.0896617 
24.05 0 0.0990865 
25.35 0 0.137644 
26.65 0 0.155624 
27.95 0 0.16501 
29.25 0 0.157226 
30.55 0 0.170991 
31.85 0 0.140967 
33.15 0 0.151546 
34.45 0 0.0151283 
35.75 0 0.27678 
37.05 0 0.225499 
38.35 0 0.138576 
39.65 0 0.0662077 
0.65 0 0.197363 
1.95 0 0.17394 
3.25 0 0.148763 
4.55 0 0.191284 
5.85 0 0.297881 
7.15 0 0.278646 
8.45 0 0.391622 
9.75 0 0.275944 
11.05 0 0.123171 
12.35 0 0.152782 
13.65 0 0.101153 
14.95 0 0.0785321 
16.25 0 0.0923231 
17.55 0 0.247044 
18.85 0 0.0552753 
20.15 0 0.269232 
21.45 0 0.0946863 
22.75 0 0.161614 
24.05 0 0.175444 
25.35 0 0.0963169 
26.65 0 0.322145 
27.95 0 0.0863335 
29.25 0 0.298582 
30.55 0 0.0438319 
31.85 0 0.132155 
33.15 0 0.0484752 
34.45 0 0.324695 
35.75 0 0.353522 
37.05 0 0.337328 
38.35 0 0.262756 
39.65 0 0.011851 
0.65 0 0.236461 
1.95 0 0.193425 
3.25 0 0.217462 
4.55 0 0.169829 
5.85 0 0.0976134 
7.15 0 0.173047 
8.45 0 0.11751 
9.75 0 0.0840927 
11.05 0 0.0145927 
12.35 0 0.199675 
13.65 0 0.193227 
14.95 0 0.21668 
16.25 0 0.275803 
17.55 0 0.0709399 
18.85 0 0.160735 
20.15 0 0.148573 
21.45 0 0.109348 
22.75 0 0.160369 
24.05 0 0.141552 
25.35 0 0.115175 
26.65 0 0.277131 
27.95 0 0.177674 
29.25 0 0.245757 
30.55 0 0.0411077 
31.85 0 0.0417601 
33.15 0 0.0537953 
34.45 0 0.0466735 
35.75 0 0.140709 
37.05 0 0.163357 
38.35 0 0.129469 
39.65 0 0.225367 
0.65 0 0.0604372 
1.95 0 0.0959215 
3.25 0 0.292858 
4.55 0 0.115881 
5.85 0 0.3595 
7.15 0 0.0595575 
8.45 0 0.149809 
9.75 0 0.22168 
11.05 0 0.239061 
12.35 0 0.0619271 
13.65 0 0.222925 
14.95 0 0.19383 
16.25 0 0.457697 
17.55 0 0.263625 
18.85 0 0.180898 
20.15 0 0.022516 
21.45 0 0.210897 
22.75 0 0.0904699 
24.05 0 0.144015 
25.35 0 0.256459 
26.65 0 0.131361 
27.95 0 0.163621 
29.25 0 0.201826 
30.55 0 0.1956 
31.85 0 0.067418 
33.15 0 0.137229 
34.45 0 0.0476436 
35.75 0 0.0170558 
37.05 0 0.102427 
38.35 0 0.0599235 
39.65 0 0.181035 
0.65 0 0.154072 
1.95 0 0.209873 
3.25 0 0.222703 
4.55 0 0.152656 
5.85 0 0.130772 
7.15 0 0.0860004 
8.45 0 0.229077 
9.75 0 0.0497539 
11.05 0 0.185353 
12.35 0 0.232055 
13.65 0 0.0494094 
14.95 0 0.144664 
16.25 0 0.34487 
17.55 0 0.0688583 
18.85 0 0.27194 
20.15 0 0.142405 
21.45 0 0.154223 
22.75 0 0.261816 
24.05 0 0.246677 
25.35 0 0.363257 
26.65 0 0.289769 
27.95 0 0.329012 
29.25 0 0.32149 
30.55 0 0.166098 
31.85 0 0.0168681 
33.15 0 0.242171 
34.45 0 0.173232 
35.75 0 0.124585 
37.05 0 0.0591849 
38.35 0 0.205857 
39.65 0 0.388419 
0.65 0 0.141305 
1.95 0 0.046846 
3.25 0 0.171883 
4.55 0 0.106203 
5.85 0 0.127774 
7.15 0 0.0726805 
8.45 0 0.0744079 
9.75 0 0.406821 
11.05 0 0.0938673 
12.35 0 0.349428 
13.65 0 0.18316 
14.95 0 0.0515277 
16.25 0 0.0825308 
17.55 0 0.308858 
18.85 0 0.0858965 
20.15 0 0.213108 
21.45 0 0.178439 
22.75 0 0.165798 
24.05 0 0.285411 
25.35 0 0.090579 
26.65 0 0.0153325 
27.95 0 0.0261504 
29.25 0 0.122583 
30.55 0 0.338949 
31.85 0 0.162109 
33.15 0 0.0354772 
34.45 0 0.392048 
35.75 0 0.245628 
37.05 0 0.127913 
38.35 0 0.200724 
39.65 0 0.153085 
0.65 0 0.256216 
1.95 0 0.117154 
3.25 0 0.0899554 
4.55 0 0.210055 
5.85 0 0.375218 
7.15 0 0.19639 
8.45 0 0.101262 
9.75 0 0.154168 
11.05 0 0.218751 
12.35 0 0.140681 
13.65 0 0.10252 
14.95 0 0.172936 
16.25 0 0.110436 
17.55 0 0.0550365 
18.85 0 0.221618 
20.15 0 0.0437402 
21.45 0 0.245682 
22.75 0 0.386997 
24.05 0 0.389075 
25.35 0 0.114997 
26.65 0 0.209441 
27.95 0 0.134175 
29.25 0 0.222019 
30.55 0 0.254491 
31.85 0 0.163326 
33.15 0 0.257217 
34.45 0 0.154448 
35.75 0 0.0886327 
37.05 0 0.232295 
38.35 0 0.133889 
39.65 0 0.316284 
0.65 0 0.171914 
1.95 0 0.0791285 
3.25 0 0.0474208 
4.55 0 0.201377 
5.85 0 0.121248 
7.15 0 0.219271 
8.45 0 0.083059 
9.75 0 0.118454 
11.05 0 0.0572794 
12.35 0 0.237706 
13.65 0 0.0680019 
14.95 0 0.322171 
16.25 0 0.136969 
17.55 0 0.254251 
18.85 0 0.0527255 
20.15 0 0.239805 
21.45 0 0.155759 
22.75 0 0.0415683 
24.05 0 0.349991 
25.35 0 0.34605 
26.65 0 0.371751 
27.95 0 0.323883 
29.25 0 0.226225 
30.55 0 0.00592479 
31.85 0 0.428981 
33.15 0 0.256978 
34.45 0 0.199132 
35.75 0 0.302601 
37.05 0 0.205348 
38.35 0 0.079622 
39.65 0 0.228109 
0.65 0 0.217851 
1.95 0 0.107344 
3.25 0 0.128312 
4.55 0 0.225949 
5.85 0 0.18307 
7.15 0 0.0515487 
8.45 0 0.0119909 
9.75 0 0.0738322 
11.05 0 0.0791496 
12.35 0 0.0627799 
13.65 0 0.0687184 
14.95 0 0.200135 
16.25 0 0.235895 
17.55 0 0.169705 
18.85 0 0.260442 
20.15 0 0.182027 
21.45 0 0.109229 
22.75 0 0.219819 
24.05 0 0.201481 
25.35 0 0.22463 
26.65 0 0.108183 
27.95 0 0.143628 
29.25 0 0.149115 
30.55 0 0.22402 
31.85 0 0.119816 
33.15 0 0.175063 
34.45 0 0.239502 
35.75 0 0.00804241 
37.05 0 0.235307 
38.35 0 0.321782 
39.65 0 0.30312 
0.65 0 0.167937 
1.95 0 0.379307 
3.25 0 0.0482708 
4.55 0 0.1057 
5.85 0 0.0996808 
7.15 0 0.162134 
8.45 0 0.325804 
9.75 0 0.0199625 
11.05 0 0.211771 
12.35 0 0.194293 
13.65 0 0.137058 
14.95 0 0.0147996 
16.25 0 0.168403 
17.55 0 0.16565 
18.85 0 0.0664755 
20.15 0 0.322164 
21.45 0 0.105315 
22.75 0 0.0660566 
24.05 0 0.0811598 
25.35 0 0.130453 
26.65 0 0.0683204 
27.95 0 0.0323599 
29.25 0 0.158442 
30.55 0 0.147799 
31.85 0 0.229497 
33.15 0 0.253603 
34.45 0 0.194886 
35.75 0 0.354665 
37.05 0 0.196492 
38.35 0 0.0821506 
39.65 0 0.308773 
0.65 0 0.226937 
1.95 0 0.161584 
3.25 0 0.195876 
4.55 0 0.168971 
5.85 0 0.192529 
7.15 0 0.0285663 
8.45 0 0.276217 
9.75 0 0.446477 
11.05 0 0.136865 
12.35 0 0.296662 
13.65 0 0.188363 
14.95 0 0.204076 
16.25 0 0.192515 
17.55 0 0.164783 
18.85 0 0.339906 
20.15 0 0.159897 
21.45 0 0.135733 
22.75 0 0.079237 
24.05 0 0.19441 
25.35 0 0.223724 
26.65 0 0.329238 
27.95 0 0.182148 
29.25 0 0.154641 
30.55 0 0.165291 
31.85 0 0.194098 
33.15 0 0.0677584 
34.45 0 0.128953 
35.75 0 0.185848 
37.05 0 0.0890261 
38.35 0 0.0286225 
39.65 0 0.129514 
ITEM: TIMESTEP
500
ITEM: NUMBER OF ATOMS
961
ITEM: BOX BOUNDS ff ff pp
0 80
0 40
-1 1
ITEM: ATOMS x c_ps v_speed 
0.666429 0 0.860388 
1.96872 0 0.795179 
3.27044 0 0.830401 
4.55193 0 0.533292 
5.86306 0 0.690955 
7.16207 0 0.741112 
8.46748 0 0.864419 
9.76219 0 0.836548 
11.0676 0 0.806893 
12.374 0 0.983965 
13.6721 0 0.924594 
14.9671 0 0.857604 
16.2624 0 0.61121 
17.5754 0 0.880914 
18.8579 0 0.639842 
20.1641 0 0.769266 
21.4509 0 0.642064 
22.7655 0 0.763844 
24.0471 0 0.622482 
25.3607 0 0.548108 
26.6665 0 0.901853 
27.9613 0 0.812299 
29.2658 0 0.92946 
30.5522 0 0.74598 
31.8653 0 0.868594 
33.155 0 0.693078 
34.4428 0 1.02396 
35.7509 0 0.788947 
37.0523 0 1.1692 
38.3528 0 0.903404 
39.6301 0 0.996481 
0.670909 0 0.811461 
1.96423 0 0.656979 
3.2729 0 0.875169 
4.55786 0 0.522343 
5.86746 0 0.832934 
7.1708 0 0.826848 
8.46836 0 0.779188 
9.76831 0 0.728744 
11.056 0 0.638753 
12.365 0 0.714187 
13.6569 0 0.646064 
14.974 0 0.919544 
16.2552 0 0.50502 
17.5584 0 0.638504 
18.8691 0 0.805446 
20.161 0 0.673188 
21.474 0 0.860403 
22.7563 0 0.727571 
24.0651 0 0.836513 
25.3672 0 0.605311 
26.6646 0 0.76781 
27.9622 0 0.816922 
29.2589 0 0.865914 
30.5565 0 0.818925 
31.8777 0 0.958339 
33.1639 0 0.834804 
34.4533 0 0.790233 
35.759 0 0.888711 
37.06 0 0.703073 
38.3514 0 0.982459 
39.6396 0 0.825686 
0.67019 0 0.805431 
1.95859 0 0.609626 
3.26691 0 0.801825 
4.56688 0 0.69767 
5.87659 0 0.999202 
7.17343 0 0.831606 
8.47493 0 0.954986 
9.76445 0 0.770194 
11.0713 0 0.914195 
12.3627 0 0.680222 
13.6571 0 0.560196 
14.9729 0 0.909703 
16.2555 0 0.552709 
17.5623 0 0.684322 
18.8579 0 0.681107 
20.1674 0 0.767646 
21.4688 0 0.736801 
22.7686 0 0.908445 
24.0713 0 0.98524 
25.3594 0 0.643933 
26.6582 0 0.744052 
27.9722 0 1.08904 
29.269 0 0.765782 
30.5589 0 0.872456 
31.8606 0 0.918186 
33.1652 0 0.833056 
34.4617 0 0.614953 
35.7598 0 0.7011 
37.0468 0 0.478634 
38.3489 0 0.703852 
39.6246 0 1.03329 
0.676364 0 0.998901 
1.96922 0 0.783098 
3.26776 0 0.737451 
4.58178 0 1.01725 
5.85811 0 0.536407 
7.17743 0 1.08673 
8.45905 0 0.673254 
9.77176 0 0.81332 
11.0796 0 0.997842 
12.3638 0 0.832504 
13.6703 0 0.874806 
14.9615 0 0.673376 
16.2719 0 0.840982 
17.5701 0 1.01854 
18.8613 0 0.600321 
20.1758 0 0.852713 
21.4717 0 0.762904 
22.7619 0 0.819932 
24.0717 0 0.990565 
25.3577 0 0.786415 
26.659 0 0.839557 
27.955 0 0.657193 
29.2583 0 0.79515 
30.5533 0 0.83227 
31.8443 0 0.858671 
33.161 0 1.00028 
34.4469 0 0.592829 
35.7595 0 0.789559 
37.0512 0 0.690234 
38.3576 0 0.680791 
39.6439 0 0.984557 
0.667386 0 0.738714 
1.96199 0 0.60453 
3.26996 0 0.772321 
4.56569 0 0.807677 
5.87635 0 0.888335 
7.16811 0 0.828984 
8.46329 0 0.648046 
9.77309 0 0.807184 
11.0631 0 0.645419 
12.3706 0 0.784357 
13.6683 0 0.757947 
14.9653 0 0.839594 
16.2627 0 0.689481 
17.549 0 0.535841 
18.8534 0 0.531966 
20.1639 0 0.688817 
21.4696 0 0.808995 
22.7661 0 0.705568 
24.0624 0 0.814389 
25.3594 0 0.746179 
26.6662 0 0.836687 
27.9687 0 0.889084 
29.2518 0 0.792124 
30.5739 0 0.811047 
31.8593 0 0.6664 
33.1575 0 0.723348 
34.4585 0 0.925797 
35.7587 0 0.868459 
37.0498 0 0.566779 
38.3472 0 0.837873 
39.6319 0 1.00896 
0.661176 0 0.599982 
1.97106 0 0.779815 
3.26513 0 0.704311 
4.57095 0 0.821459 
5.87626 0 0.924192 
7.17125 0 0.795286 
8.46357 0 0.741112 
9.75698 0 0.566928 
11.0776 0 0.912538 
12.3601 0 0.553392 
13.6674 0 0.732103 
14.9711 0 0.90994 
16.2739 0 0.884024 
17.5546 0 0.470393 
18.8641 0 0.76621 
20.1729 0 0.897996 
21.475 0 0.884898 
22.7653 0 0.72693 
24.0658 0 0.851791 
25.3784 0 0.982151 
26.6715 0 0.787401 
27.9723 0 0.76787 
29.2681 0 0.793362 
30.5669 0 0.832875 
31.8658 0 0.941177 
33.161 0 0.850009 
34.4699 0 0.760337 
35.757 0 0.804306 
37.0434 0 0.863391 
38.3535 0 0.648185 
39.6392 0 1.22941 
0.660378 0 0.738578 
1.961 0 0.622493 
3.26806 0 0.748861 
4.56689 0 0.772355 
5.87945 0 1.01802 
7.18513 0 1.11439 
8.46613 0 0.683972 
9.76727 0 0.700061 
11.0584 0 0.633367 
12.3803 0 1.06046 
13.6744 0 0.897668 
14.969 0 0.820643 
16.2723 0 0.823235 
17.5678 0 0.872083 
18.8613 0 0.649657 
20.1687 0 0.710221 
21.4736 0 0.835984 
22.7588 0 0.64706 
24.0569 0 0.614518 
25.3731 0 0.958839 
26.6634 0 0.710614 
27.9607 0 0.688649 
29.2754 0 0.863304 
30.562 0 0.690343 
31.859 0 0.733324 
33.1698 0 0.82855 
34.4607 0 0.884479 
35.7545 0 0.82321 
37.0665 0 0.664299 
38.3553 0 0.63722 
39.6382 0 1.0417 
0.671793 0 0.809049 
1.9671 0 0.708012 
3.26465 0 0.744528 
4.57093 0 0.815742 
5.8706 0 0.794492 
7.16699 0 0.707922 
8.4625 0 0.647244 
9.76222 0 0.685946 
11.0681 0 0.827998 
12.3669 0 0.768106 
13.6711 0 0.788444 
14.9443 0 0.342379 
16.2484 0 0.446502 
17.5629 0 0.650917 
18.8704 0 0.787277 
20.166 0 0.716504 
21.4555 0 0.746388 
22.7544 0 0.489064 
24.0561 0 0.515346 
25.3613 0 0.815334 
26.6683 0 0.763214 
27.9654 0 0.739749 
29.2733 0 0.976024 
30.5542 0 0.516217 
31.856 0 0.598481 
33.168 0 0.734325 
34.4655 0 0.846989 
35.7603 0 0.533815 
37.0506 0 0.833477 
38.3556 0 0.657883 
39.6293 0 0.943127 
0.674511 0 0.907706 
1.97236 0 0.812524 
3.28084 0 0.985897 
4.57287 0 0.826093 
5.87099 0 0.782014 
7.17681 0 0.899255 
8.46574 0 0.682205 
9.77329 0 0.830908 
11.0723 0 0.832168 
12.368 0 0.859815 
13.6725 0 0.847003 
14.9717 0 0.907831 
16.2687 0 0.787803 
17.5621 0 0.717854 
18.8713 0 0.864747 
20.1767 0 0.937457 
21.4598 0 0.703073 
22.7746 0 0.874412 
24.0751 0 0.881283 
25.3687 0 0.97083 
26.659 0 0.69987 
27.9703 0 0.805033 
29.2646 0 0.76059 
30.5629 0 0.879663 
31.867 0 0.883771 
33.1609 0 0.665612 
34.4562 0 0.950669 
35.7597 0 0.866681 
37.0664 0 0.719732 
38.3548 0 0.65622 
39.6255 0 1.05602 
0.666366 0 0.714684 
1.96272 0 0.662152 
3.26828 0 0.745704 
4.56672 0 0.731199 
5.88149 0 0.995162 
7.16958 0 0.863729 
8.46956 0 0.779899 
9.76414 0 0.653181 
11.0666 0 0.7064 
12.3745 0 0.912373 
13.6664 0 0.704448 
14.9735 0 0.882489 
16.2804 0 0.960561 
17.5632 0 0.645833 
18.8614 0 0.682053 
20.1567 0 0.611103 
21.4647 0 0.720287 
22.7652 0 0.749327 
24.0645 0 0.667619 
25.3772 0 0.913445 
26.6582 0 0.589793 
27.9765 0 0.919332 
29.2621 0 0.637435 
30.5698 0 0.922785 
31.8715 0 0.874545 
33.1607 0 0.746937 
34.4674 0 0.726238 
35.7562 0 0.600242 
37.0665 0 0.916834 
38.3579 0 0.75382 
39.6255 0 1.08427 
0.673326 0 0.854811 
1.96914 0 0.753406 
3.26069 0 0.594788 
4.56787 0 0.780697 
5.8722 0 0.81185 
7.16002 0 0.582352 
8.463 0 0.65441 
9.76708 0 0.714277 
11.0734 0 0.832395 
12.3642 0 0.690582 
13.6676 0 0.74082 
14.9735 0 0.902073 
16.2661 0 0.714018 
17.5685 0 0.766165 
18.8657 0 0.728274 
20.1793 0 0.942416 
21.4732 0 0.840633 
22.7658 0 0.760105 
24.0716 0 0.878575 
25.3585 0 0.675356 
26.6736 0 0.969723 
27.9659 0 0.68261 
29.2749 0 1.0331 
30.5667 0 0.743786 
31.8643 0 0.690692 
33.1689 0 0.802848 
34.4729 0 0.970096 
35.7708 0 0.83847 
37.059 0 0.839187 
38.3406 0 0.763773 
39.645 0 0.831856 
0.659516 0 0.582214 
1.96554 0 0.709724 
3.27978 0 0.971632 
4.5816 0 1.01541 
5.87734 0 0.910786 
7.15654 0 0.530782 
8.4599 0 0.645263 
9.76419 0 0.707447 
11.0731 0 0.85732 
12.3643 0 0.661175 
13.6868 0 1.10472 
14.9618 0 0.628976 
16.2629 0 0.657629 
17.5773 0 0.905629 
18.8744 0 0.87189 
20.1625 0 0.719292 
21.4828 0 1.10793 
22.7702 0 0.8088 
24.0765 0 0.885821 
25.3795 0 0.974639 
26.6598 0 0.576153 
27.9575 0 0.686408 
29.2635 0 0.713796 
30.5685 0 0.833707 
31.867 0 0.756184 
33.162 0 0.714224 
34.4654 0 0.821249 
35.7712 0 0.850582 
37.0617 0 0.819784 
38.358 0 0.767162 
39.633 0 0.939681 
0.670377 0 0.793325 
1.96769 0 0.766617 
3.26756 0 0.732709 
4.56548 0 0.69775 
5.87562 0 0.901556 
7.16612 0 0.709517 
8.46668 0 0.708983 
9.76254 0 0.636673 
11.067 0 0.736316 
12.3676 0 0.728213 
13.6721 0 0.811573 
14.9733 0 0.855171 
16.27 0 0.794538 
17.5609 0 0.648744 
18.88 0 0.962264 
20.166 0 0.719959 
21.4756 0 0.881487 
22.7735 0 0.860816 
24.0802 0 0.962863 
25.3532 0 0.447415 
26.6779 0 0.921081 
27.9619 0 0.655011 
29.2787 0 0.989181 
30.5657 0 0.702701 
31.8604 0 0.625822 
33.1728 0 0.858982 
34.4648 0 0.672691 
35.7574 0 0.589178 
37.0739 0 0.822733 
38.3605 0 0.704057 
39.631 0 1.29707 
0.664394 0 0.725004 
1.97119 0 0.796059 
3.26653 0 0.709584 
4.56775 0 0.73102 
5.86705 0 0.721484 
7.17371 0 0.885107 
8.471 0 0.796836 
9.76476 0 0.687494 
11.0639 0 0.71195 
12.3633 0 0.647142 
13.6679 0 0.745239 
14.9675 0 0.73446 
16.2699 0 0.796461 
17.5544 0 0.484057 
18.8604 0 0.593363 
20.1698 0 0.769351 
21.4758 0 0.884659 
22.7766 0 0.912601 
24.0716 0 0.802767 
25.3752 0 0.872354 
26.6797 0 0.963028 
27.9603 0 0.586837 
29.2738 0 0.844522 
30.5516 0 0.500859 
31.8759 0 0.908756 
33.1733 0 0.865227 
34.4615 0 0.66874 
35.7725 0 0.805405 
37.063 0 0.62553 
38.3658 0 0.790129 
39.6375 0 0.876754 
0.672774 0 0.836351 
1.96894 0 0.759627 
3.25593 0 0.521383 
4.56684 0 0.732683 
5.87049 0 0.784049 
7.1697 0 0.773931 
8.47228 0 0.840465 
9.77208 0 0.825121 
11.0643 0 0.669177 
12.3628 0 0.643645 
13.6547 0 0.486652 
14.9634 0 0.649753 
16.2567 0 0.530239 
17.5567 0 0.528278 
18.8622 0 0.625122 
20.1966 0 1.27978 
21.4658 0 0.695605 
22.7604 0 0.597105 
24.0668 0 0.716734 
25.371 0 0.795687 
26.6703 0 0.814033 
27.9682 0 0.740018 
29.27 0 0.778275 
30.5719 0 0.811471 
31.8625 0 0.632183 
33.17 0 0.779985 
34.4775 0 0.918254 
35.7623 0 0.65233 
37.064 0 0.660676 
38.3758 0 0.880506 
39.6628 0 0.681587 
0.665828 0 0.703609 
1.96637 0 0.709787 
3.27995 0 0.969965 
4.57586 0 0.910645 
5.87637 0 0.895945 
7.16605 0 0.718097 
8.48095 0 0.982137 
9.77569 0 0.884475 
11.0724 0 0.825488 
12.3685 0 0.752354 
13.6586 0 0.556919 
14.977 0 0.919031 
16.2777 0 0.924799 
17.576 0 0.895133 
18.8574 0 0.535336 
20.1748 0 0.874467 
21.4536 0 0.462266 
22.7653 0 0.709937 
24.0743 0 0.855592 
25.3815 0 1.00191 
26.6746 0 0.864339 
27.9656 0 0.692349 
29.2673 0 0.73484 
30.5729 0 0.829034 
31.8689 0 0.755399 
33.174 0 0.852065 
34.4707 0 0.811401 
35.7666 0 0.729578 
37.0642 0 0.678044 
38.3674 0 0.739277 
39.6748 0 0.913456 
0.680871 0 1.00222 
1.97159 0 0.804289 
3.2621 0 0.632776 
4.56618 0 0.707658 
5.87456 0 0.879124 
7.1709 0 0.792243 
8.47411 0 0.860982 
9.77525 0 0.878254 
11.0646 0 0.674491 
12.3659 0 0.701778 
13.6704 0 0.786248 
14.9835 0 1.03032 
16.2692 0 0.76036 
17.5701 0 0.78724 
18.8768 0 0.926142 
20.1554 0 0.496909 
21.4687 0 0.773287 
22.7758 0 0.888732 
24.065 0 0.683024 
25.3754 0 0.895199 
26.6788 0 0.978724 
27.9639 0 0.662884 
29.2728 0 0.827479 
30.5677 0 0.737564 
31.869 0 0.767011 
33.1728 0 0.833314 
34.4637 0 0.652721 
35.7676 0 0.730955 
37.0601 0 0.587057 
38.3657 0 0.76703 
39.6413 0 0.760331 
0.676907 0 0.914826 
1.95995 0 0.603097 
3.26893 0 0.765858 
4.56321 0 0.651507 
5.87386 0 0.851075 
7.1683 0 0.750595 
8.47275 0 0.833648 
9.77017 0 0.777155 
11.0804 0 0.971647 
12.3617 0 0.72369 
13.6773 0 0.910856 
14.9557 0 0.500264 
16.27 0 0.773623 
17.5526 0 0.442595 
18.8686 0 0.767097 
20.1743 0 0.853146 
21.4614 0 0.610008 
22.7592 0 0.658601 
24.0687 0 0.75311 
25.3598 0 0.584336 
26.6765 0 0.976175 
27.9624 0 0.635394 
29.267 0 0.722902 
30.5714 0 0.822511 
31.8827 0 1.00742 
33.1806 0 0.979965 
34.4721 0 0.882294 
35.7554 0 0.563966 
37.0734 0 0.882103 
38.3596 0 0.679005 
39.6341 0 0.939195 
0.667511 0 0.734079 
1.96643 0 0.704717 
3.27651 0 0.905344 
4.56877 0 0.752738 
5.86643 0 0.705303 
7.17316 0 0.838498 
8.48335 0 1.02582 
9.77439 0 0.856515 
11.0753 0 0.871678 
12.3719 0 0.829913 
13.6758 0 0.883501 
14.9611 0 0.601845 
16.2679 0 0.756596 
17.5719 0 0.810855 
18.8697 0 0.767409 
20.1709 0 0.804696 
21.4613 0 0.619278 
22.7736 0 0.863117 
24.0627 0 0.632077 
25.3774 0 0.947141 
26.6735 0 0.890762 
27.9603 0 0.67114 
29.263 0 0.635543 
30.5687 0 0.775152 
31.8744 0 0.868063 
33.1654 0 0.792447 
34.4757 0 0.912412 
35.756 0 0.675554 
37.0685 0 0.81314 
38.3589 0 0.806837 
39.6379 0 1.02884 
0.665255 0 0.689292 
1.95926 0 0.616863 
3.27399 0 0.85614 
4.57454 0 0.858494 
5.86987 0 0.788116 
7.15776 0 0.537393 
8.47328 0 0.832849 
9.77241 0 0.890041 
11.0703 0 0.789201 
12.3616 0 0.613332 
13.6657 0 0.688401 
14.9673 0 0.764011 
16.2712 0 0.791288 
17.5703 0 0.782547 
18.8572 0 0.580566 
20.1682 0 0.746227 
21.4656 0 0.680137 
22.792 0 1.18143 
24.0666 0 0.776826 
25.3602 0 0.617047 
26.6814 0 0.995599 
27.978 0 0.964373 
29.2674 0 0.726848 
30.5641 0 0.646191 
31.8647 0 0.74928 
33.1732 0 0.826163 
34.4599 0 0.678358 
35.759 0 0.699382 
37.0516 0 0.784682 
38.3526 0 0.791552 
39.6313 0 0.848143 
0.655997 0 0.51481 
1.97699 0 0.933124 
3.26275 0 0.64749 
4.56742 0 0.757474 
5.86165 0 0.610124 
7.16286 0 0.667055 
8.46543 0 0.708335 
9.78005 0 0.993003 
11.0687 0 0.76284 
12.3682 0 0.779648 
13.6775 0 0.933722 
14.962 0 0.612855 
16.2702 0 0.768393 
17.5756 0 0.981482 
18.8641 0 0.659917 
20.1619 0 0.604779 
21.4591 0 0.567726 