ITEM: TIMESTEP
0
ITEM: NUMBER OF ATOMS
225
ITEM: BOX BOUNDS ff ff pp
0 40
0 20
-1 1
ITEM: ATOMS v_fs v_soc 
0 0 
0 0 
0 0 
0 0 
0 0 
0 0 
0 0 
0 0 
0 0 
0 0 
0 0 
0 0 
0 0 
0 0 
0 0 
0 0 
0 0 
0 0 
0 0 
0 0 
0 0 
0 0 
0 0 
0 0 
0 0 
0 0 
0 0 
0 0 
0 0 
0 0 
0 0 
0 0 
0 0 
0 0 
0 0 
0 0 
0 0 
0 0 
0 0 
0 0 
0 0 
0 0 
0 0 
0 0 
0 0 
0 0 
0 0 
0 0 
0 0 
0 0 
0 0 
0 0 
0 0 
0 0 
0 0 
0 0 
0 0 
0 0 
0 0 
0 0 
0 0 
0 0 
0 0 
0 0 
0 0 
0 0 
0 0 
0 0 
0 0 
0 0 
0 0 
0 0 
0 0 
0 0 
0 0 
0 0 
0 0 
0 0 
0 0 
0 0 
0 0 
0 0 
0 0 
0 0 
0 0 
0 0 
0 0 
0 0 
0 0 
0 0 
0 0 
0 0 
0 0 
0 0 
0 0 
0 0 
0 0 
0 0 
0 0 
0 0 
0 0 
0 0 
0 0 
0 0 
0 0 
0 0 
0 0 
0 0 
0 0 
0 0 
0 0 
0 0 
0 0 
0 0 
0 0 
0 0 
0 0 
0 0 
0 0 
0 0 
0 0 
0 0 
0 0 
0 0 
0 0 
0 0 
0 0 
0 0 
0 0 
0 0 
0 0 
0 0 
0 0 
0 0 
0 0 
0 0 
0 0 
0 0 
0 0 
0 0 
0 0 
0 0 
0 0 
0 0 
0 0 
0 0 
0 0 
0 0 
0 0 
0 0 
0 0 
0 0 
0 0 
0 0 
0 0 
0 0 
0 0 
0 0 
0 0 
0 0 
0 0 
0 0 
0 0 
0 0 
0 0 
0 0 
0 0 
0 0 
0 0 
0 0 
0 0 
0 0 
0 0 
0 0 
0 0 
0 0 
0 0 
0 0 
0 0 
0 0 
0 0 
0 0 
0 0 
0 0 
0 0 
0 0 
0 0 
0 0 
0 0 
0 0 
0 0 
0 0 
0 0 
0 0 
0 0 
0 0 
0 0 
0 0 
0 0 
0 0 
0 0 
0 0 
0 0 
0 0 
0 0 
0 0 
0 0 
0 0 
0 0 
0 0 
0 0 
0 0 
0 0 
0 0 
0 0 
0 0 
0 0 
0 0 
0 0 
0 0 
0 0 
0 0 
0 0 
0 0 
0 0 
ITEM: TIMESTEP
500
ITEM: NUMBER OF ATOMS
225
ITEM: BOX BOUNDS ff ff pp
0 40
0 20
-1 1
ITEM: ATOMS v_fs v_soc 
0 0 
0 0 
0 0 
0 0 
0 0 
0 0 
0 0 
0 0 
0 0 
0 0 
0 0 
0 0 
0 0 
0 0 
0 0 
0 0 
0 0 
0 0 
0 0 
0 0 
0 0 
0 0 
0 0 
0 0 
0 0 
0 0 
0 0 
0 0 
0 0 
0 0 
0 0 
0 0 
0 0 
0 0 
0 0 
0 0 
0 0 
0 0 
0 0 
0 0 
0 0 
0 0 
0 0 
0 0 
0 0 
0 0 
0 0 
0 0 
0 0 
0 0 
0 0 
0 0 
0 0 
0 0 
0 0 
0 0 
0 0 
0 0 
0 0 
0 0 
0 0 
0 0 
0 0 
0 0 
0 0 
0 0 
0 0 
0 0 
0 0 
0 0 
0 0 
0 0 
0 0 
0 0 
0 0 
0 0 
0 0 
0 0 
0 0 
0 0 
0 0 
0 0 
0 0 
0 0 
0 0 
0 0 
0 0 
0 0 
0 0 
0 0 
0 0 
0 0 
0 0 
0 0 
0 0 
0 0 
0 0 
0 0 
0 0 
0 0 
0 0 
0 0 
0 0 
0 0 
0 0 
0 0 
0 0 
0 0 
0 0 
0 0 
0 0 
0 0 
0 0 
0 0 
0 0 
0 0 
0 0 
0 0 
0 0 
0 0 
0 0 
0 0 
0 0 
0 0 
0 0 
0 0 
0 0 
0 0 
0 0 
0 0 
0 0 
0 0 
0 0 
0 0 
0 0 
0 0 
0 0 
0 0 
0 0 
0 0 
0 0 
0 0 
0 0 
0 0 
0 0 
0 0 
0 0 
0 0 
0 0 
0 0 
0 0 
0 0 
0 0 
0 0 
0 0 
0 0 
0 0 
0 0 
0 0 
0 0 
0 0 
0 0 
0 0 
0 0 
0 0 
0 0 
0 0 
0 0 
0 0 
0 0 
0 0 
0 0 
0 0 
0 0 
0 0 
0 0 
0 0 
0 0 
0 0 
0 0 
0 0 
0 0 
0 0 
0 0 
0 0 
0 0 
0 0 
0 0 
0 0 
0 0 
0 0 
0 0 
0 0 
0 0 
0 0 
0 0 
0 0 
0 0 
0 0 
0 0 
0 0 
0 0 
0 0 
0 0 
0 0 
0 0 
0 0 
0 0 
0 0 
0 0 
0 0 
0 0 
0 0 
0 0 
0 0 
0 0 
0 0 
0 0 
0 0 
0 0 
0 0 
0 0 
0 0 
0 0 
0 0 
ITEM: TIMESTEP
1000
ITEM: NUMBER OF ATOMS
225
ITEM: BOX BOUNDS ff ff pp
0 40
0 20
-1 1
ITEM: ATOMS v_fs v_soc 
0 0 
0 0 
0 0 
0 0 
0 0 
0 0 
0 0 
0 0 
0 0 
0 0 
0 0 
0 0 
0 0 
0 0 
0 0 
0 0 
0 0 
0 0 
0 0 
0 0 
0 0 
0 0 
0 0 
0 0 
0 0 
0 0 
0 0 
0 0 
0 0 
0 0 
0 0 
0 0 
0 0 
0 0 
0 0 
0 0 
0 0 
0 0 
0 0 
0 0 
0 0 
0 0 
0 0 
0 0 
0 0 
0 0 
0 0 
0 0 
0 0 
0 0 
0 0 
0 0 
0 0 
0 0 
0 0 
0 0 
0 0 
0 0 
0 0 
0 0 
0 0 
0 0 
0 0 
0 0 
0 0 
0 0 
0 0 
0 0 
0 0 
0 0 
0 0 
0 0 
0 0 
0 0 
0 0 
0 0 
0 0 
0 0 
0 0 
0 0 
0 0 
0 0 
0 0 
0 0 
0 0 
0 0 
0 0 
0 0 
0 0 
0 0 
0 0 
0 0 
0 0 
0 0 
0 0 
0 0 
0 0 
0 0 
0 0 
0 0 
0 0 
0 0 
0 0 
0 0 
0 0 
0 0 
0 0 
0 0 
0 0 
0 0 
0 0 
0 0 
0 0 
0 0 
0 0 
0 0 
0 0 
0 0 
0 0 
0 0 
0 0 
0 0 
0 0 
0 0 
0 0 
0 0 
0 0 
0 0 
0 0 
0 0 
0 0 
0 0 
0 0 
0 0 
0 0 
0 0 
0 0 
0 0 
0 0 
0 0 
0 0 
0 0 
0 0 
0 0 
0 0 
0 0 
0 0 
0 0 
0 0 
0 0 
0 0 
0 0 
0 0 
0 0 
0 0 
0 0 
0 0 
0 0 
0 0 
0 0 
0 0 
0 0 
0 0 
0 0 
0 0 
0 0 
0 0 
0 0 
0 0 
0 0 
0 0 
0 0 
0 0 
0 0 
0 0 
0 0 
0 0 
0 0 
0 0 
0 0 
0 0 
0 0 
0 0 
0 0 
0 0 
0 0 
0 0 
0 0 
0 0 
0 0 
0 0 
0 0 
0 0 
0 0 
0 0 
0 0 
0 0 
0 0 
0 0 
0 0 
0 0 
0 0 
0 0 
0 0 
0 0 
0 0 
0 0 
0 0 
0 0 
0 0 
0 0 
0 0 
0 0 
0 0 
0 0 
0 0 
0 0 
0 0 
0 0 
0 0 
0 0 
0 0 
0 0 
0 0 
0 0 
ITEM: TIMESTEP
1500
ITEM: NUMBER OF ATOMS
225
ITEM: BOX BOUNDS ff ff pp
0 40
0 20
-1 1
ITEM: ATOMS v_fs v_soc 
0 0 
0 0 
0 0 
0 0 
0 0 
0 0 
0 0 
0 0 
0 0 
0 0 
0 0 
0 0 
0 0 
0 0 
0 0 
0 0 
0 0 
0 0 
0 0 
0 0 
0 0 
0 0 
0 0 
0 0 
0 0 
0 0 
0 0 
0 0 
0 0 
0 0 
0 0 
0 0 
0 0 
0 0 
0 0 
0 0 
0 0 
0 0 
0 0 
0 0 
0 0 
0 0 
0 0 
0 0 
0 0 
0 0 
0 0 
0 0 
0 0 
0 0 
0 0 
0 0 
0 0 
0 0 
0 0 
0 0 
0 0 
0 0 
0 0 
0 0 
0 0 
0 0 
0 0 
0 0 
0 0 
0 0 
0 0 
0 0 
0 0 
0 0 
0 0 
0 0 
0 0 
0 0 
0 0 
0 0 
0 0 
0 0 
0 0 
0 0 
0 0 
0 0 
0 0 
0 0 
0 0 
0 0 
0 0 
0 0 
0 0 
0 0 
0 0 
0 0 
0 0 
0 0 
0 0 
0 0 
0 0 
0 0 
0 0 
0 0 
0 0 
0 0 
0 0 
0 0 
0 0 
0 0 
0 0 
0 0 
0 0 
0 0 
0 0 
0 0 
0 0 
0 0 
0 0 
0 0 
0 0 
0 0 
0 0 
0 0 
0 0 
0 0 
0 0 
0 0 
0 0 
0 0 
0 0 
0 0 
0 0 
0 0 
0 0 
0 0 
0 0 
0 0 
0 0 
0 0 
0 0 
0 0 
0 0 
0 0 
0 0 
0 0 
0 0 
0 0 
0 0 
0 0 
0 0 
0 0 
0 0 
0 0 
0 0 
0 0 
0 0 
0 0 
0 0 
0 0 
0 0 
0 0 
0 0 
0 0 
0 0 
0 0 
0 0 
0 0 
0 0 
0 0 
0 0 
0 0 
0 0 
0 0 
0 0 
0 0 
0 0 
0 0 
0 0 
0 0 
0 0 
0 0 
0 0 
0 0 
0 0 
0 0 
0 0 
0 0 
0 0 
0 0 
0 0 
0 0 
0 0 
0 0 
0 0 
0 0 
0 0 
0 0 
0 0 
0 0 
0 0 
0 0 
0 0 
0 0 
0 0 
0 0 
0 0 
0 0 
0 0 
0 0 
0 0 
0 0 
0 0 
0 0 
0 0 
0 0 
0 0 
0 0 
0 0 
0 0 
0 0 
0 0 
0 0 
0 0 
0 0 
0 0 
0 0 
0 0 
0 0 
ITEM: TIMESTEP
2000
ITEM: NUMBER OF ATOMS
225
ITEM: BOX BOUNDS ff ff pp
0 40
0 20
-1 1
ITEM: ATOMS v_fs v_soc 
0 1.18799 
0 1.18799 
0 1.18799 
0 1.18799 
0 1.18799 
0 1.18799 
0 1.18799 
0 1.18799 
0 1.18799 
0 1.18799 
0 1.18799 
0 1.18799 
0 1.18799 
0 1.18799 
0 1.18799 
0 1.18799 
0 1.18799 
0 1.18799 
0 1.18799 
0 1.18799 
0 1.18799 
0 1.18799 
0 1.18799 
0 1.18799 
0 1.18799 
0 1.18799 
0 1.18799 
0 1.18799 
0 1.18799 
0 1.18799 
0 1.18799 
0 1.18799 
0 1.18799 
0 1.18799 
0 1.18799 
0 1.18799 
0 1.18799 
0 1.18799 
0 1.18799 
0 1.18799 
0 1.18799 
0 1.18799 
0 1.18799 
0 1.18799 
0 1.18799 
0 1.18799 
0 1.18799 
0 1.18799 
0 1.18799 
0 1.18799 
0 1.18799 
0 1.18799 
0 1.18799 
0 1.18799 
0 1.18799 
0 1.18799 
0 1.18799 
0 1.18799 
0 1.18799 
0 1.18799 
0 1.18799 
0 1.18799 
0 1.18799 
0 1.18799 
0 1.18799 
0 1.18799 
0 1.18799 
0 1.18799 
0 1.18799 
0 1.18799 
0 1.18799 
0 1.18799 
0 1.18799 
2.09923 1.18799 
2.09923 1.18799 
0 1.18799 
0 1.18799 
0 1.18799 
0 1.18799 
0 1.18799 
0 1.18799 
0 1.18799 
0 1.18799 
0 1.18799 
0 1.18799 
0 1.18799 
0 1.18799 
0 1.18799 
0 1.18799 
0 1.18799 
0 1.18799 
0 1.18799 
0 1.18799 
0 1.18799 
0 1.18799 
0 1.18799 
0 1.18799 
0 1.18799 
0 1.18799 
0 1.18799 
0 1.18799 
0 1.18799 
0 1.18799 
0 1.18799 
3.54016 1.18799 
0 1.18799 
0 1.18799 
0 1.18799 
0 1.18799 
0 1.18799 
0 1.18799 
0 1.18799 
0 1.18799 
0 1.18799 
0 1.18799 
0 1.18799 
0 1.18799 
0 1.18799 
0 1.18799 
3.54016 1.18799 
0 1.18799 
0 1.18799 
0 1.18799 
0 1.18799 
0 1.18799 
0 1.18799 
0 1.18799 
0 1.18799 
0 1.18799 
0 1.18799 
0 1.18799 
0 1.18799 
0 1.18799 
2.30063 1.18799 
4.83085 1.18799 
0 1.18799 
0 1.18799 
0 1.18799 
0 1.18799 
0 1.18799 
0 1.18799 
0 1.18799 
0 1.18799 
0 1.18799 
0 1.18799 
0 1.18799 
0 1.18799 
0 1.18799 
2.30063 1.18799 
4.83085 1.18799 
0 1.18799 
0 1.18799 
0 1.18799 
0 1.18799 
0 1.18799 
0 1.18799 
0 1.18799 
0 1.18799 
0 1.18799 
0 1.18799 
0 1.18799 
0 1.18799 
0 1.18799 
2.07855 1.18799 
2.07855 1.18799 
0 1.18799 
0 1.18799 
0 1.18799 
0 1.18799 
0 1.18799 
0 1.18799 
0 1.18799 
0 1.18799 
0 1.18799 
0 1.18799 
0 1.18799 
0 1.18799 
0 1.18799 
0 1.18799 
0 1.18799 
0 1.18799 
0 1.18799 
0 1.18799 
0 1.18799 
0 1.18799 
0 1.18799 
0 1.18799 
0 1.18799 
0 1.18799 
0 1.18799 
0 1.18799 
0 1.18799 
0 1.18799 
0 1.18799 
0 1.18799 
0 1.18799 
0 1.18799 
0 1.18799 
0 1.18799 
0 1.18799 
0 1.18799 
0 1.18799 
0 1.18799 
0 1.18799 
0 1.18799 
0 1.18799 
0 1.18799 
0 1.18799 
0 1.18799 
0 1.18799 
0 1.18799 
0 1.18799 
0 1.18799 
0 1.18799 
0 1.18799 
0 1.18799 
0 1.18799 
0 1.18799 
0 1.18799 
0 1.18799 
0 1.18799 
0 1.18799 
0 1.18799 
0 1.18799 
0 1.18799 
ITEM: TIMESTEP
2500
ITEM: NUMBER OF ATOMS
225
ITEM: BOX BOUNDS ff ff pp
0 40
0 20
-1 1
ITEM: ATOMS v_fs v_soc 
0 5.59718 
0 5.59718 
0 5.59718 
0 5.59718 
0 5.59718 
0 5.59718 
0 5.59718 
0 5.59718 
0 5.59718 
0 5.59718 
0 5.59718 
0 5.59718 
0 5.59718 
1.91525 5.59718 
1.91525 5.59718 
0 5.59718 
0 5.59718 
0 5.59718 
0 5.59718 
0 5.59718 
0 5.59718 
0 5.59718 
0 5.59718 
0 5.59718 
0 5.59718 
0 5.59718 
0 5.59718 
0 5.59718 
0 5.59718 
0 5.59718 
0 5.59718 
0 5.59718 
0 5.59718 
0 5.59718 
0 5.59718 
2.27479 5.59718 
0 5.59718 
0 5.59718 
0 5.59718 
0 5.59718 
0 5.59718 
0 5.59718 
2.22048 5.59718 
2.22048 5.59718 
0 5.59718 
0 5.59718 
0 5.59718 
0 5.59718 
0 5.59718 
0 5.59718 
2.27479 5.59718 
0 5.59718 
0 5.59718 
0 5.59718 
0 5.59718 
0 5.59718 
0 5.59718 
0 5.59718 
0 5.59718 
0 5.59718 
0 5.59718 
0 5.59718 
0 5.59718 
0 5.59718 
0 5.59718 
0 5.59718 
0 5.59718 
0 5.59718 
0 5.59718 
0 5.59718 
0 5.59718 
0 5.59718 
0 5.59718 
6.42266 5.59718 
4.33449 5.59718 
0 5.59718 
0 5.59718 
0 5.59718 
0 5.59718 
0 5.59718 
0 5.59718 
0 5.59718 
0 5.59718 
0 5.59718 
0 5.59718 
1.88396 5.59718 
1.87928 5.59718 
0 5.59718 
2.08816 5.59718 
2.63765 5.59718 
0 5.59718 
0 5.59718 
0 5.59718 
0 5.59718 
0 5.59718 
0 5.59718 
0 5.59718 
0 5.59718 
0 5.59718 
0 5.59718 
1.88396 5.59718 
1.87928 5.59718 
0 5.59718 
0 5.59718 
13.7463 5.59718 
0 5.59718 
0 5.59718 
0 5.59718 
0 5.59718 
0 5.59718 
0 5.59718 
0 5.59718 
0 5.59718 
0 5.59718 
0 5.59718 
0 5.59718 
0 5.59718 
0 5.59718 
0 5.59718 
11.1087 5.59718 
0 5.59718 
0 5.59718 
0 5.59718 
0 5.59718 
0 5.59718 
0 5.59718 
0 5.59718 
0 5.59718 
0 5.59718 
0 5.59718 
0 5.59718 
0 5.59718 
3.35911 5.59718 
6.22098 5.59718 
17.908 5.59718 
0 5.59718 
0 5.59718 
0 5.59718 
0 5.59718 
0 5.59718 
0 5.59718 
0 5.59718 
0 5.59718 
0 5.59718 
0 5.59718 
0 5.59718 
0 5.59718 
3.35911 5.59718 
6.22098 5.59718 
17.908 5.59718 
0 5.59718 
0 5.59718 
0 5.59718 
0 5.59718 
0 5.59718 
0 5.59718 
0 5.59718 
0 5.59718 
0 5.59718 
0 5.59718 
0 5.59718 
2.15487 5.59718 
0 5.59718 
4.14468 5.59718 
4.14468 5.59718 
0 5.59718 
0 5.59718 
0 5.59718 
0 5.59718 
0 5.59718 
0 5.59718 
0 5.59718 
0 5.59718 
0 5.59718 
0 5.59718 
0 5.59718 
2.15487 5.59718 
0 5.59718 
0 5.59718 
0 5.59718 
0 5.59718 
0 5.59718 
0 5.59718 
0 5.59718 
0 5.59718 
0 5.59718 
1.99966 5.59718 
0 5.59718 
0 5.59718 
0 5.59718 
0 5.59718 
0 5.59718 
0 5.59718 
1.9323 5.59718 
1.9323 5.59718 
0 5.59718 
0 5.59718 
0 5.59718 
0 5.59718 
0 5.59718 
0 5.59718 
1.99966 5.59718 
0 5.59718 
0 5.59718 
0 5.59718 
0 5.59718 
0 5.59718 
0 5.59718 
1.90033 5.59718 
1.90033 5.59718 
0 5.59718 
0 5.59718 
0 5.59718 
0 5.59718 
0 5.59718 
0 5.59718 
0 5.59718 
0 5.59718 
0 5.59718 
0 5.59718 
0 5.59718 
0 5.59718 
0 5.59718 
0 5.59718 
0 5.59718 
ITEM: TIMESTEP
3000
ITEM: NUMBER OF ATOMS
225
ITEM: BOX BOUNDS ff ff pp
0 40
0 20
-1 1
ITEM: ATOMS v_fs v_soc 
0 19.1596 
0 19.1596 
0 19.1596 
0 19.1596 
0 19.1596 
0 19.1596 
0 19.1596 
0 19.1596 
0 19.1596 
0 19.1596 
0 19.1596 
0 19.1596 
0 19.1596 
3.12441 19.1596 
3.12441 19.1596 
0 19.1596 
0 19.1596 
0 19.1596 
0 19.1596 
0 19.1596 
0 19.1596 
0 19.1596 
0 19.1596 
0 19.1596 
0 19.1596 
0 19.1596 
0 19.1596 
0 19.1596 
2.2005 19.1596 
0 19.1596 
0 19.1596 
0 19.1596 
0 19.1596 
0 19.1596 
0 19.1596 
3.41963 19.1596 
0 19.1596 
0 19.1596 
0 19.1596 
0 19.1596 
0 19.1596 
0 19.1596 
3.77471 19.1596 
5.97521 19.1596 
0 19.1596 
0 19.1596 
0 19.1596 
0 19.1596 
0 19.1596 
0 19.1596 
3.41963 19.1596 
0 19.1596 
0 19.1596 
0 19.1596 
0 19.1596 
0 19.1596 
0 19.1596 
0 19.1596 
2.37132 19.1596 
2.37132 19.1596 
0 19.1596 
0 19.1596 
0 19.1596 
0 19.1596 
0 19.1596 
0 19.1596 
1.91169 19.1596 
0 19.1596 
0 19.1596 
2.28599 19.1596 
0 19.1596 
0 19.1596 
0 19.1596 
13.0752 19.1596 
9.58637 19.1596 
0 19.1596 
0 19.1596 
0 19.1596 
0 19.1596 
0 19.1596 
0 19.1596 
1.91169 19.1596 
0 19.1596 
0 19.1596 
2.28599 19.1596 
3.31748 19.1596 
3.51965 19.1596 
2.68269 19.1596 
10.2883 19.1596 
9.17201 19.1596 
0 19.1596 
0 19.1596 
0 19.1596 
0 19.1596 
0 19.1596 
0 19.1596 
0 19.1596 
0 19.1596 
0 19.1596 
0 19.1596 
3.31748 19.1596 
3.51965 19.1596 
2.68269 19.1596 
5.73688 19.1596 
46.5897 19.1596 
0 19.1596 
0 19.1596 
0 19.1596 
0 19.1596 
0 19.1596 
0 19.1596 
0 19.1596 
0 19.1596 
0 19.1596 
0 19.1596 
0 19.1596 
0 19.1596 
0 19.1596 
2.26474 19.1596 
40.745 19.1596 
0 19.1596 
0 19.1596 
0 19.1596 
0 19.1596 
0 19.1596 
0 19.1596 
0 19.1596 
0 19.1596 
0 19.1596 
1.92098 19.1596 
0 19.1596 
0 19.1596 
8.10753 19.1596 
19.4319 19.1596 
71.2901 19.1596 
0 19.1596 
0 19.1596 
0 19.1596 
0 19.1596 
0 19.1596 
0 19.1596 
0 19.1596 
0 19.1596 
0 19.1596 
1.92098 19.1596 
2.46044 19.1596 
2.20309 19.1596 
8.10753 19.1596 
24.626 19.1596 
76.0387 19.1596 
0 19.1596 
0 19.1596 
0 19.1596 
0 19.1596 
0 19.1596 
0 19.1596 
0 19.1596 
0 19.1596 
0 19.1596 
0 19.1596 
2.46044 19.1596 
5.82316 19.1596 
0 19.1596 
11.306 19.1596 
10.8606 19.1596 
0 19.1596 
0 19.1596 
0 19.1596 
0 19.1596 
0 19.1596 
0 19.1596 
0 19.1596 
0 19.1596 
0 19.1596 
0 19.1596 
0 19.1596 
3.62006 19.1596 
0 19.1596 
3.08173 19.1596 
3.08173 19.1596 
0 19.1596 
0 19.1596 
0 19.1596 
0 19.1596 
0 19.1596 
1.81482 19.1596 
2.96466 19.1596 
0 19.1596 
0 19.1596 
0 19.1596 
0 19.1596 
2.13672 19.1596 
2.13672 19.1596 
3.54242 19.1596 
3.54242 19.1596 
0 19.1596 
0 19.1596 
0 19.1596 
0 19.1596 
2.05954 19.1596 
1.81482 19.1596 
2.96466 19.1596 
0 19.1596 
0 19.1596 
0 19.1596 
0 19.1596 
0 19.1596 
0 19.1596 
3.2765 19.1596 
3.2765 19.1596 
0 19.1596 
0 19.1596 
0 19.1596 
0 19.1596 
2.05954 19.1596 
0 19.1596 
0 19.1596 
0 19.1596 
0 19.1596 
0 19.1596 
0 19.1596 
0 19.1596 
0 19.1596 
0 19.1596 
0 19.1596 
ITEM: TIMESTEP
3500
ITEM: NUMBER OF ATOMS
225
ITEM: BOX BOUNDS ff ff pp
0 40
0 20
-1 1
ITEM: ATOMS v_fs v_soc 
0 60.8881 
0 60.8881 
0 60.8881 
0 60.8881 
1.84704 60.8881 
0 60.8881 
0 60.8881 
0 60.8881 
0 60.8881 
0 60.8881 
0 60.8881 
0 60.8881 
0 60.8881 
5.24718 60.8881 
5.24718 60.8881 
0 60.8881 
0 60.8881 
0 60.8881 
0 60.8881 
1.84704 60.8881 
0 60.8881 
0 60.8881 
0 60.8881 
0 60.8881 
0 60.8881 
0 60.8881 
0 60.8881 
0 60.8881 
5.06607 60.8881 
2.19168 60.8881 
0 60.8881 
0 60.8881 
0 60.8881 
0 60.8881 
0 60.8881 
5.13385 60.8881 
0 60.8881 
0 60.8881 
0 60.8881 
0 60.8881 
0 60.8881 
0 60.8881 
6.62034 60.8881 
12.0752 60.8881 
2.58045 60.8881 
0 60.8881 
0 60.8881 
0 60.8881 
0 60.8881 
0 60.8881 
5.13385 60.8881 
0 60.8881 
1.85043 60.8881 
0 60.8881 
0 60.8881 
0 60.8881 
3.81618 60.8881 
4.03955 60.8881 
4.65727 60.8881 
4.65727 60.8881 
0 60.8881 
0 60.8881 
0 60.8881 
0 60.8881 
0 60.8881 
0 60.8881 
2.85138 60.8881 
1.85043 60.8881 
0 60.8881 
3.67287 60.8881 
2.49935 60.8881 
1.82102 60.8881 
3.8895 60.8881 
28.161 60.8881 
22.2612 60.8881 
0 60.8881 
0 60.8881 
0 60.8881 
0 60.8881 
0 60.8881 
2.31204 60.8881 
2.85138 60.8881 
2.70238 60.8881 
0 60.8881 
3.67287 60.8881 
8.63645 60.8881 
7.02156 60.8881 
7.93794 60.8881 
21.0763 60.8881 
21.9961 60.8881 
0 60.8881 
0 60.8881 
0 60.8881 
1.9741 60.8881 
0 60.8881 
2.31204 60.8881 
0 60.8881 
2.70238 60.8881 
0 60.8881 
0 60.8881 
6.1371 60.8881 
7.02156 60.8881 
8.61851 60.8881 
15.8296 60.8881 
178.177 60.8881 
0 60.8881 
0 60.8881 
0 60.8881 
1.9741 60.8881 
0 60.8881 
0 60.8881 
0 60.8881 
0 60.8881 
0 60.8881 
0 60.8881 
0 60.8881 
0 60.8881 
2.52567 60.8881 
6.54353 60.8881 
164.995 60.8881 
0 60.8881 
0 60.8881 
0 60.8881 
0 60.8881 
0 60.8881 
0 60.8881 
0 60.8881 
1.83137 60.8881 
0 60.8881 
3.23591 60.8881 
2.15802 60.8881 
2.02244 60.8881 
21.6603 60.8881 
73.6177 60.8881 
248.329 60.8881 
0 60.8881 
0 60.8881 
0 60.8881 
0 60.8881 
0 60.8881 
0 60.8881 
0 60.8881 
3.83769 60.8881 
1.81029 60.8881 
5.30096 60.8881 
6.42951 60.8881 
6.04278 60.8881 
23.8092 60.8881 
78.8839 60.8881 
260.401 60.8881 
0 60.8881 
0 60.8881 
0 60.8881 
1.94053 60.8881 
0 60.8881 
0 60.8881 
0 60.8881 
2.00632 60.8881 
1.81029 60.8881 
2.06504 60.8881 
6.53239 60.8881 
10.2865 60.8881 
4.35114 60.8881 
23.4718 60.8881 
23.3793 60.8881 
0 60.8881 
2.18372 60.8881 
0 60.8881 
1.94053 60.8881 
0 60.8881 
0 60.8881 
0 60.8881 
0 60.8881 
0 60.8881 
0 60.8881 
2.26089 60.8881 
6.26613 60.8881 
6.42004 60.8881 
8.59784 60.8881 
6.32997 60.8881 
0 60.8881 
2.18372 60.8881 
0 60.8881 
0 60.8881 
0 60.8881 
2.50545 60.8881 
4.41031 60.8881 
0 60.8881 
0 60.8881 
0 60.8881 
0 60.8881 
3.0343 60.8881 
7.00856 60.8881 
8.92415 60.8881 
6.89986 60.8881 
0 60.8881 
0 60.8881 
0 60.8881 
0 60.8881 
2.87446 60.8881 
2.50545 60.8881 
4.41031 60.8881 
0 60.8881 
0 60.8881 
0 60.8881 
0 60.8881 
0 60.8881 
0 60.8881 
5.9033 60.8881 
5.9033 60.8881 
0 60.8881 
0 60.8881 
0 60.8881 
0 60.8881 
2.87446 60.8881 
0 60.8881 
0 60.8881 
0 60.8881 
0 60.8881 
0 60.8881 
0 60.8881 
0 60.8881 
2.12109 60.8881 
4.18613 60.8881 
2.06504 60.8881 
ITEM: TIMESTEP
4000
ITEM: NUMBER OF ATOMS
225
ITEM: BOX BOUNDS ff ff pp
0 40
0 20
-1 1
ITEM: ATOMS v_fs v_soc 
0 165.58 
0 165.58 
0 165.58 
0 165.58 
2.46504 165.58 
0 165.58 
0 165.58 
0 165.58 
0 165.58 
0 165.58 
0 165.58 
2.32839 165.58 
2.32839 165.58 
9.01978 165.58 
9.01978 165.58 
0 165.58 
0 165.58 
0 165.58 
0 165.58 
2.46504 165.58 
0 165.58 
0 165.58 
0 165.58 
0 165.58 
0 165.58 
2.06034 165.58 
3.88397 165.58 
1.88535 165.58 
9.36307 165.58 
3.77995 165.58 
0 165.58 
0 165.58 
0 165.58 
0 165.58 
0 165.58 
7.67832 165.58 
0 165.58 
0 165.58 
0 165.58 
0 165.58 
0 165.58 
1.82363 165.58 
11.8981 165.58 
20.2625 165.58 
4.66657 165.58 
0 165.58 
0 165.58 
0 165.58 
0 165.58 
0 165.58 
7.67832 165.58 
0 165.58 
2.6815 165.58 
0 165.58 
1.94233 165.58 
2.1072 165.58 
7.77392 165.58 
8.06984 165.58 
11.9569 165.58 
9.78932 165.58 
2.28624 165.58 
0 165.58 
0 165.58 
1.97473 165.58 
0 165.58 
0 165.58 
4.33464 165.58 
2.6815 165.58 
0 165.58 
7.98609 165.58 
4.2858 165.58 
5.25931 165.58 
6.00281 165.58 
62.7235 165.58 
56.6926 165.58 
4.3494 165.58 
0 165.58 
0 165.58 
1.97473 165.58 
2.01564 165.58 
3.41467 165.58 
4.33464 165.58 
4.25718 165.58 
2.24328 165.58 
6.04377 165.58 
16.1182 165.58 
17.1942 165.58 
20.051 165.58 
52.0099 165.58 
70.0935 165.58 
2.06316 165.58 
0 165.58 
0 165.58 
2.54538 165.58 
2.01564 165.58 
3.41467 165.58 
0 165.58 
4.25718 165.58 
2.24328 165.58 
1.83564 165.58 
11.8324 165.58 
14.7381 165.58 
19.5287 165.58 
64.6468 165.58 
664.864 165.58 
0 165.58 
0 165.58 
0 165.58 
2.54538 165.58 
0 165.58 
0 165.58 
0 165.58 
0 165.58 
0 165.58 
1.83564 165.58 
0 165.58 
0 165.58 
4.30404 165.58 
12.6968 165.58 
635.987 165.58 
0 165.58 
0 165.58 
0 165.58 
0 165.58 
0 165.58 
0 165.58 
2.17442 165.58 
2.81378 165.58 
0 165.58 
5.70375 165.58 
4.02276 165.58 
4.09872 165.58 
62.6684 165.58 
286.323 165.58 
495.23 165.58 
0 165.58 
0 165.58 
2.29223 165.58 
0 165.58 
0 165.58 
2.26692 165.58 
4.00464 165.58 
5.86636 165.58 
2.838 165.58 
9.11879 165.58 
11.7385 165.58 
11.8501 165.58 
68.6494 165.58 
276.471 165.58 
551.287 165.58 
2.03288 165.58 
0 165.58 
2.29223 165.58 
2.6838 165.58 
0 165.58 
2.26692 165.58 
1.83021 165.58 
5.11388 165.58 
2.838 165.58 
6.16647 165.58 
11.3509 165.58 
18.8482 165.58 
7.35249 165.58 
48.7288 165.58 
58.4823 165.58 
2.03288 165.58 
2.98502 165.58 
0 165.58 
2.6838 165.58 
2.2715 165.58 
0 165.58 
0 165.58 
2.0613 165.58 
2.47509 165.58 
2.75143 165.58 
3.63521 165.58 
12.9973 165.58 
11.8483 165.58 
17.5962 165.58 
13.85 165.58 
0 165.58 
2.98502 165.58 
0 165.58 
0 165.58 
2.2715 165.58 
3.46614 165.58 
6.56874 165.58 
0 165.58 
2.47509 165.58 
0 165.58 
0 165.58 
4.2828 165.58 
10.2653 165.58 
17.5056 165.58 
14.151 165.58 
0 165.58 
0 165.58 
0 165.58 
0 165.58 
4.01968 165.58 
3.46614 165.58 
6.56874 165.58 
0 165.58 
0 165.58 
0 165.58 
1.99314 165.58 
4.04205 165.58 
2.04891 165.58 
11.0283 165.58 
11.0283 165.58 
0 165.58 
0 165.58 
0 165.58 
0 165.58 
4.01968 165.58 
0 165.58 
0 165.58 
0 165.58 
0 165.58 
0 165.58 
0 165.58 
2.07741 165.58 
5.42002 165.58 
6.74526 165.58 
3.40265 165.58 
ITEM: TIMESTEP
4500
ITEM: NUMBER OF ATOMS
225
ITEM: BOX BOUNDS ff ff pp
0 40
0 20
-1 1
ITEM: ATOMS v_fs v_soc 
2.14628 413.336 
0 413.336 
0 413.336 
0 413.336 
3.29555 413.336 
0 413.336 
1.80542 413.336 
0 413.336 
0 413.336 
0 413.336 
4.20146 413.336 
5.83121 413.336 
3.5169 413.336 
15.7643 413.336 
15.7643 413.336 
2.14628 413.336 
0 413.336 
0 413.336 
0 413.336 
3.29555 413.336 
0 413.336 
1.80542 413.336 
2.20109 413.336 
2.29971 413.336 
2.22679 413.336 
6.83995 413.336 
5.05471 413.336 
2.86073 413.336 
14.3839 413.336 
6.83939 413.336 
0 413.336 
0 413.336 
0 413.336 
0 413.336 
0 413.336 
11.4072 413.336 
1.88791 413.336 
2.20109 413.336 
2.29971 413.336 
0 413.336 
2.36689 413.336 
4.69559 413.336 
21.7213 413.336 
35.2638 413.336 
8.85874 413.336 
0 413.336 
0 413.336 
0 413.336 
0 413.336 
0 413.336 
11.4072 413.336 
1.88791 413.336 
3.95256 413.336 
2.39503 413.336 
2.94102 413.336 
4.66246 413.336 
11.3393 413.336 
12.2342 413.336 
25.2797 413.336 
21.7546 413.336 
3.08441 413.336 
0 413.336 
0 413.336 
2.70799 413.336 
0 413.336 
0 413.336 
6.6935 413.336 
3.95256 413.336 
4.69674 413.336 
13.0695 413.336 
9.55931 413.336 
10.8523 413.336 
11.5561 413.336 
140.759 413.336 
146.738 413.336 
5.85851 413.336 
0 413.336 
0 413.336 
2.70799 413.336 
2.86739 413.336 
5.12561 413.336 
6.6935 413.336 
6.86319 413.336 
5.95949 413.336 
13.2065 413.336 
31.2064 413.336 
36.3621 413.336 
50.8319 413.336 
134.189 413.336 
503.401 413.336 
2.77409 413.336 
0 413.336 
0 413.336 
3.26952 413.336 
4.77141 413.336 
5.12561 413.336 
1.93361 413.336 
8.7968 413.336 
5.88888 413.336 
5.62678 413.336 
23.5385 413.336 
34.4721 413.336 
48.6951 413.336 
512.752 413.336 
1688.37 413.336 
0 413.336 
0 413.336 
0 413.336 
3.26952 413.336 
1.90402 413.336 
0 413.336 
0 413.336 
0 413.336 
2.2311 413.336 
2.54877 413.336 
0 413.336 
4.31783 413.336 
9.73782 413.336 
27.8547 413.336 
1633.6 413.336 
0 413.336 
0 413.336 
0 413.336 
2.44397 413.336 
2.01408 413.336 
0 413.336 
3.2748 413.336 
4.45946 413.336 
2.60051 413.336 
10.4568 413.336 
8.00306 413.336 
10.8977 413.336 
189.662 413.336 
1348.13 413.336 
278.025 413.336 
0 413.336 
0 413.336 
3.16485 413.336 
2.44397 413.336 
2.01408 413.336 
3.2672 413.336 
5.97411 413.336 
9.22964 413.336 
7.20512 413.336 
16.3497 413.336 
22.3962 413.336 
24.6401 413.336 
200.209 413.336 
921.395 413.336 
933.098 413.336 
2.70887 413.336 
0 413.336 
3.16485 413.336 
3.74364 413.336 
0 413.336 
3.2672 413.336 
2.69931 413.336 
7.83734 413.336 
6.67859 413.336 
10.2833 413.336 
20.4205 413.336 
35.5917 413.336 
12.9253 413.336 
101.381 413.336 
239.167 413.336 
2.70887 413.336 
4.09677 413.336 
0 413.336 
3.74364 413.336 
3.1575 413.336 
0 413.336 
0 413.336 
3.06717 413.336 
5.68064 413.336 
4.39044 413.336 
6.02744 413.336 
22.6497 413.336 
18.5777 413.336 
39.9448 413.336 
31.7478 413.336 
0 413.336 
4.09677 413.336 
0 413.336 
2.3703 413.336 
3.1575 413.336 
4.79504 413.336 
9.76926 413.336 
2.31573 413.336 
3.60667 413.336 
2.20689 413.336 
0 413.336 
7.80683 413.336 
15.2981 413.336 
37.8124 413.336 
30.2004 413.336 
1.85523 413.336 
0 413.336 
0 413.336 
2.3703 413.336 
5.62356 413.336 
4.79504 413.336 
9.76926 413.336 
4.19909 413.336 
4.02537 413.336 
2.20689 413.336 
2.68472 413.336 
7.53354 413.336 
3.02387 413.336 
21.1637 413.336 
21.1637 413.336 
1.85523 413.336 
0 413.336 
0 413.336 
0 413.336 
5.62356 413.336 
0 413.336 
0 413.336 
0 413.336 
2.14201 413.336 
0 413.336 
0 413.336 
3.03162 413.336 
8.46409 413.336 
11.27 413.336 
5.83756 413.336 
ITEM: TIMESTEP
5000
ITEM: NUMBER OF ATOMS
225
ITEM: BOX BOUNDS ff ff pp
0 40
0 20
-1 1
ITEM: ATOMS v_fs v_soc 
2.76817 1406.4 
0 1406.4 
3.85936 1406.4 
1.97599 1406.4 
4.40657 1406.4 
0 1406.4 
2.35807 1406.4 
1.93284 1406.4 
0 1406.4 
2.15728 1406.4 
5.63436 1406.4 
8.66995 1406.4 
7.4801 1406.4 
29.8159 1406.4 
27.7725 1406.4 
2.76817 1406.4 
0 1406.4 
1.88337 1406.4 
0 1406.4 
4.40657 1406.4 
0 1406.4 
4.22354 1406.4 
7.04062 1406.4 
5.16351 1406.4 
5.11402 1406.4 
8.95933 1406.4 
8.72227 1406.4 
6.59877 1406.4 
23.1787 1406.4 
12.9008 1406.4 
0 1406.4 
0 1406.4 
0 1406.4 
0 1406.4 
0 1406.4 
16.7723 1406.4 
4.48474 1406.4 
4.8864 1406.4 
4.88105 1406.4 
4.00135 1406.4 
3.15827 1406.4 
6.12103 1406.4 
39.8167 1406.4 
63.1853 1406.4 
17.5315 1406.4 
0 1406.4 
2.01452 1406.4 
0 1406.4 
2.33132 1406.4 
0 1406.4 
16.7723 1406.4 
2.61926 1406.4 
7.78373 1406.4 
3.54229 1406.4 
6.75692 1406.4 
6.65221 1406.4 
16.7639 1406.4 
18.7917 1406.4 
56.1392 1406.4 
50.2404 1406.4 
4.18784 1406.4 
2.01452 1406.4 
2.07205 1406.4 
6.08473 1406.4 
2.25024 1406.4 
0 1406.4 
10.4607 1406.4 
8.53895 1406.4 
7.19631 1406.4 
21.751 1406.4 
19.1746 1406.4 
19.6987 1406.4 
19.8637 1406.4 
295.459 1406.4 
415.772 1406.4 
7.94808 1406.4 
2.38523 1406.4 
4.27284 1406.4 
3.75341 1406.4 
6.39965 1406.4 
7.7941 1406.4 
12.7301 1406.4 
13.9058 1406.4 
9.84639 1406.4 
22.7892 1406.4 
61.9092 1406.4 
78.5536 1406.4 
140.358 1406.4 
406.906 1406.4 
5699.09 1406.4 
3.76023 1406.4 
2.38523 1406.4 
2.20079 1406.4 
4.18177 1406.4 
6.55939 1406.4 
7.7941 1406.4 
4.44661 1406.4 
13.4498 1406.4 
9.16561 1406.4 
9.20436 1406.4 
49.5579 1406.4 
74.5644 1406.4 
132.42 1406.4 
5775.11 1406.4 
1362.36 1406.4 
0 1406.4 
1.89732 1406.4 
0 1406.4 
4.18177 1406.4 
2.40998 1406.4 
0 1406.4 
0 1406.4 
0 1406.4 
2.97325 1406.4 
3.5936 1406.4 
1.91619 1406.4 
6.12717 1406.4 
17.1165 1406.4 
88.0561 1406.4 
1298.11 1406.4 
0 1406.4 
1.89732 1406.4 
0 1406.4 
3.37648 1406.4 
2.86772 1406.4 
0 1406.4 
5.05523 1406.4 
7.26265 1406.4 
4.32472 1406.4 
19.7969 1406.4 
16.8862 1406.4 
23.3619 1406.4 
521.945 1406.4 
6058.84 1406.4 
103.196 1406.4 
0 1406.4 
0 1406.4 
4.41015 1406.4 
3.37648 1406.4 
4.74912 1406.4 
4.78012 1406.4 
9.13813 1406.4 
14.8939 1406.4 
12.0297 1406.4 
30.3641 1406.4 
44.3658 1406.4 
53.8954 1406.4 
553.191 1406.4 
2809.06 1406.4 
5141 1406.4 
3.63067 1406.4 
0 1406.4 
4.41015 1406.4 
5.25534 1406.4 
1.8814 1406.4 
4.78012 1406.4 
6.20343 1406.4 
12.304 1406.4 
10.8724 1406.4 
17.7629 1406.4 
37.7373 1406.4 
70.6308 1406.4 
25.8252 1406.4 
215.188 1406.4 
1807.36 1406.4 
3.63067 1406.4 
5.63635 1406.4 
0 1406.4 
5.25534 1406.4 
4.43197 1406.4 
0 1406.4 
2.12053 1406.4 
6.81221 1406.4 
8.4926 1406.4 
9.01689 1406.4 
10.2577 1406.4 
39.8797 1406.4 
29.8579 1406.4 
87.7345 1406.4 
77.1874 1406.4 
0 1406.4 
5.63635 1406.4 
0 1406.4 
3.21185 1406.4 
4.43197 1406.4 
6.62073 1406.4 
14.4598 1406.4 
5.39958 1406.4 
5.32514 1406.4 
4.78397 1406.4 
1.90426 1406.4 
10.4707 1406.4 
23.3101 1406.4 
78.3934 1406.4 
65.8317 1406.4 
2.34517 1406.4 
1.94607 1406.4 
0 1406.4 
3.21185 1406.4 
7.85645 1406.4 
8.99825 1406.4 
14.4598 1406.4 
5.55885 1406.4 
5.1547 1406.4 
2.96271 1406.4 
5.53004 1406.4 
10.3998 1406.4 
7.07915 1406.4 
43.7305 1406.4 
41.1898 1406.4 
2.34517 1406.4 
1.94607 1406.4 
0 1406.4 
0 1406.4 
7.85645 1406.4 
2.37752 1406.4 
0 1406.4 
0 1406.4 
2.85598 1406.4 
0 1406.4 
2.2 1406.4 
6.6989 1406.4 
13.5651 1406.4 
19.4373 1406.4 
10.3711 1406.4 
ITEM: TIMESTEP
5500
ITEM: NUMBER OF ATOMS
225
ITEM: BOX BOUNDS ff ff pp
0 40
0 20
-1 1
ITEM: ATOMS v_fs v_soc 
3.57766 1551.94 
0 1551.94 
4.69088 1551.94 
4.12295 1551.94 
5.88319 1551.94 
0 1551.94 
3.09775 1551.94 
2.46333 1551.94 
2.05868 1551.94 
5.0803 1551.94 
9.95029 1551.94 
13.1359 1551.94 
11.8624 1551.94 
52.0353 1551.94 
48.7441 1551.94 
5.56312 1551.94 
0 1551.94 
6.71002 1551.94 
3.8104 1551.94 
5.88319 1551.94 
1.89815 1551.94 
5.59221 1551.94 
9.17287 1551.94 
8.70846 1551.94 
8.99433 1551.94 
11.739 1551.94 
11.8199 1551.94 
10.3586 1551.94 
39.3307 1551.94 
25.1561 1551.94 
1.98546 1551.94 
1.94429 1551.94 
2.33168 1551.94 
2.03969 1551.94 
0 1551.94 
26.1911 1551.94 
6.1801 1551.94 
6.80549 1551.94 
6.23354 1551.94 
7.4838 1551.94 
6.27392 1551.94 
10.0388 1551.94 
74.2262 1551.94 
115.147 1551.94 
35.9092 1551.94 
0 1551.94 
4.59537 1551.94 
0 1551.94 
5.25258 1551.94 
2.37152 1551.94 
24.2929 1551.94 
3.68565 1551.94 
11.5735 1551.94 
5.32841 1551.94 
10.323 1551.94 
11.8019 1551.94 
27.1133 1551.94 
31.3074 1551.94 
135.444 1551.94 
119.981 1551.94 
5.71477 1551.94 
2.65108 1551.94 
2.82289 1551.94 
8.4628 1551.94 
5.56081 1551.94 
0 1551.94 
16.4811 1551.94 
13.1122 1551.94 
11.3179 1551.94 
36.5255 1551.94 
34.9072 1551.94 
32.7562 1551.94 
40.1523 1551.94 
559.844 1551.94 
1373.74 1551.94 
10.8463 1551.94 
3.22735 1551.94 
5.84768 1551.94 
5.24991 1551.94 
9.28734 1551.94 
11.9613 1551.94 
19.9192 1551.94 
22.9593 1551.94 
16.8221 1551.94 
40.0172 1551.94 
123.558 1551.94 
169.825 1551.94 
420.651 1551.94 
1487.68 1551.94 
4887.13 1551.94 
5.13148 1551.94 
3.22735 1551.94 
3.02478 1551.94 
5.32275 1551.94 
9.1623 1551.94 
11.9613 1551.94 
5.86016 1551.94 
21.1885 1551.94 
14.8245 1551.94 
15.9131 1551.94 
98.9138 1551.94 
158.281 1551.94 
359.887 1551.94 
5279.94 1551.94 
441.208 1551.94 
0 1551.94 
2.13304 1551.94 
0 1551.94 
5.32275 1551.94 
3.06425 1551.94 
0 1551.94 
0 1551.94 
0 1551.94 
3.99187 1551.94 
5.13722 1551.94 
2.94119 1551.94 
9.24533 1551.94 
33.2355 1551.94 
500.716 1551.94 
642.382 1551.94 
0 1551.94 
2.13304 1551.94 
0 1551.94 
4.71265 1551.94 
4.15817 1551.94 
2.58945 1551.94 
7.97151 1551.94 
12.106 1551.94 
7.45988 1551.94 
38.3353 1551.94 
37.511 1551.94 
55.0702 1551.94 
1028.38 1551.94 
2852.14 1551.94 
335.786 1551.94 
2.07727 1551.94 
0 1551.94 
6.1896 1551.94 
4.71265 1551.94 
6.82862 1551.94 
9.66876 1551.94 
14.2907 1551.94 
24.5622 1551.94 
20.6962 1551.94 
57.9634 1551.94 
90.5977 1551.94 
125.503 1551.94 
1189.33 1551.94 
5929.17 1551.94 
1707.19 1551.94 
6.96455 1551.94 
0 1551.94 
6.1896 1551.94 
7.40705 1551.94 
4.73218 1551.94 
7.07931 1551.94 
9.45602 1551.94 
19.7282 1551.94 
18.2117 1551.94 
31.6909 1551.94 
70.9396 1551.94 
138.851 1551.94 
61.3621 1551.94 
508.801 1551.94 
4868.73 1551.94 
4.88728 1551.94 
7.75965 1551.94 
1.80443 1551.94 
7.40705 1551.94 
8.32864 1551.94 
0 1551.94 
3.1368 1551.94 
10.3148 1551.94 
12.9152 1551.94 
14.601 1551.94 
17.853 1551.94 
71.924 1551.94 
54.4785 1551.94 
203.244 1551.94 
183.995 1551.94 
0 1551.94 
7.75965 1551.94 
1.80443 1551.94 
4.39047 1551.94 
6.26692 1551.94 
9.10709 1551.94 
21.2082 1551.94 
7.69712 1551.94 
10.2989 1551.94 
6.52604 1551.94 
2.48618 1551.94 
13.8574 1551.94 
38.6127 1551.94 
167.312 1551.94 
141.773 1551.94 
2.97022 1551.94 
2.50947 1551.94 
0 1551.94 
4.39047 1551.94 
10.9365 1551.94 
12.3113 1551.94 
21.2082 1551.94 
7.44841 1551.94 