ITEM: TIMESTEP
0
ITEM: NUMBER OF ATOMS
225
ITEM: BOX BOUNDS ff ff pp
0 40
0 20
-1 1
ITEM: ATOMS x y c_fd v_fs c_fg v_d1 
0.65 0.65 1393.05 0 0 0 
1.95 0.65 1397.22 0 0 0 
3.25 0.65 1391.95 0 0 0 
4.55 0.65 1439.47 0 0 0 
5.85 0.65 1413.15 0 0 0 
7.15 0.65 1405.65 0 0 0 
8.45 0.65 1386.2 0 0 0 
9.75 0.65 1390.72 0 0 0 
11.05 0.65 1395.64 0 0 0 
12.35 0.65 1368.4 0 0 0 
13.65 0.65 1378.88 0 0 0 
14.95 0.65 1385.84 0 0 0 
16.25 0.65 1434.31 0 0 0 
17.55 0.65 1408.99 0 0 0 
18.85 0.65 1412.85 0 0 0 
0.65 1.95 1401.52 0 0 0 
1.95 1.95 1434.45 0 0 0 
3.25 1.95 1398.88 0 0 0 
4.55 1.95 1441.82 0 0 0 
5.85 1.95 1427 0 0 0 
7.15 1.95 1381.73 0 0 0 
8.45 1.95 1396.54 0 0 0 
9.75 1.95 1377.21 0 0 0 
11.05 1.95 1414.05 0 0 0 
12.35 1.95 1382.95 0 0 0 
13.65 1.95 1413.69 0 0 0 
14.95 1.95 1386.89 0 0 0 
16.25 1.95 1402.53 0 0 0 
17.55 1.95 1344.37 0 0 0 
18.85 1.95 1381.95 0 0 0 
0.65 3.25 1411.88 0 0 0 
1.95 3.25 1395.54 0 0 0 
3.25 3.25 1417.25 0 0 0 
4.55 3.25 1383.92 0 0 0 
5.85 3.25 1438.67 0 0 0 
7.15 3.25 1391.77 0 0 0 
8.45 3.25 1391.5 0 0 0 
9.75 3.25 1398.88 0 0 0 
11.05 3.25 1410.69 0 0 0 
12.35 3.25 1419.06 0 0 0 
13.65 3.25 1409.27 0 0 0 
14.95 3.25 1413.78 0 0 0 
16.25 3.25 1382.6 0 0 0 
17.55 3.25 1435.33 0 0 0 
18.85 3.25 1409.93 0 0 0 
0.65 4.55 1391.01 0 0 0 
1.95 4.55 1413.57 0 0 0 
3.25 4.55 1378.15 0 0 0 
4.55 4.55 1418.16 0 0 0 
5.85 4.55 1392.4 0 0 0 
7.15 4.55 1413.62 0 0 0 
8.45 4.55 1396.33 0 0 0 
9.75 4.55 1394.84 0 0 0 
11.05 4.55 1394.7 0 0 0 
12.35 4.55 1400.57 0 0 0 
13.65 4.55 1361.06 0 0 0 
14.95 4.55 1385.69 0 0 0 
16.25 4.55 1400.58 0 0 0 
17.55 4.55 1381.07 0 0 0 
18.85 4.55 1411.52 0 0 0 
0.65 5.85 1396.07 0 0 0 
1.95 5.85 1384.48 0 0 0 
3.25 5.85 1396.19 0 0 0 
4.55 5.85 1426.58 0 0 0 
5.85 5.85 1398.85 0 0 0 
7.15 5.85 1410.26 0 0 0 
8.45 5.85 1367.59 0 0 0 
9.75 5.85 1390.61 0 0 0 
11.05 5.85 1372.64 0 0 0 
12.35 5.85 1401.52 0 0 0 
13.65 5.85 1378.28 0 0 0 
14.95 5.85 1413.37 0 0 0 
16.25 5.85 1430.56 0 0 0 
17.55 5.85 1380.99 0 0 0 
18.85 5.85 1421.75 0 0 0 
0.65 7.15 1411.69 0 0 0 
1.95 7.15 1421.83 0 0 0 
3.25 7.15 1395.69 0 0 0 
4.55 7.15 1393.63 0 0 0 
5.85 7.15 1385.18 0 0 0 
7.15 7.15 1374.65 0 0 0 
8.45 7.15 1414.8 0 0 0 
9.75 7.15 1411.6 0 0 0 
11.05 7.15 1361.33 0 0 0 
12.35 7.15 1385.5 0 0 0 
13.65 7.15 1396.41 0 0 0 
14.95 7.15 1386.06 0 0 0 
16.25 7.15 1382.98 0 0 0 
17.55 7.15 1414.75 0 0 0 
18.85 7.15 1409.2 0 0 0 
0.65 8.45 1423.6 0 0 0 
1.95 8.45 1410.55 0 0 0 
3.25 8.45 1426.89 0 0 0 
4.55 8.45 1376.08 0 0 0 
5.85 8.45 1397.56 0 0 0 
7.15 8.45 1402.5 0 0 0 
8.45 8.45 1360.63 0 0 0 
9.75 8.45 1431.74 0 0 0 
11.05 8.45 1366.89 0 0 0 
12.35 8.45 1423.05 0 0 0 
13.65 8.45 1390.67 0 0 0 
14.95 8.45 1364.36 0 0 0 
16.25 8.45 1400.41 0 0 0 
17.55 8.45 1384.77 0 0 0 
18.85 8.45 1412.45 0 0 0 
0.65 9.75 1385.14 0 0 0 
1.95 9.75 1390.5 0 0 0 
3.25 9.75 1414.48 0 0 0 
4.55 9.75 1371.63 0 0 0 
5.85 9.75 1382.52 0 0 0 
7.15 9.75 1409.2 0 0 0 
8.45 9.75 1379.65 0 0 0 
9.75 9.75 1418.36 0 0 0 
11.05 9.75 1412.69 0 0 0 
12.35 9.75 1422.19 0 0 0 
13.65 9.75 1410.14 0 0 0 
14.95 9.75 1421.96 0 0 0 
16.25 9.75 1444.98 0 0 0 
17.55 9.75 1393.28 0 0 0 
18.85 9.75 1430.01 0 0 0 
0.65 11.05 1389.11 0 0 0 
1.95 11.05 1408.05 0 0 0 
3.25 11.05 1384.6 0 0 0 
4.55 11.05 1366.24 0 0 0 
5.85 11.05 1404.38 0 0 0 
7.15 11.05 1417.66 0 0 0 
8.45 11.05 1395 0 0 0 
9.75 11.05 1410.1 0 0 0 
11.05 11.05 1375.7 0 0 0 
12.35 11.05 1402.49 0 0 0 
13.65 11.05 1412.19 0 0 0 
14.95 11.05 1381.23 0 0 0 
16.25 11.05 1410.55 0 0 0 
17.55 11.05 1387.69 0 0 0 
18.85 11.05 1393.22 0 0 0 
0.65 12.35 1409.24 0 0 0 
1.95 12.35 1412.68 0 0 0 
3.25 12.35 1452.33 0 0 0 
4.55 12.35 1436.82 0 0 0 
5.85 12.35 1405.41 0 0 0 
7.15 12.35 1388.92 0 0 0 
8.45 12.35 1395.15 0 0 0 
9.75 12.35 1411.25 0 0 0 
11.05 12.35 1416.99 0 0 0 
12.35 12.35 1395.81 0 0 0 
13.65 12.35 1388.2 0 0 0 
14.95 12.35 1436.87 0 0 0 
16.25 12.35 1354.65 0 0 0 
17.55 12.35 1391.6 0 0 0 
18.85 12.35 1397.48 0 0 0 
0.65 13.65 1402.33 0 0 0 
1.95 13.65 1395.5 0 0 0 
3.25 13.65 1408.08 0 0 0 
4.55 13.65 1417.91 0 0 0 
5.85 13.65 1402.75 0 0 0 
7.15 13.65 1416.27 0 0 0 
8.45 13.65 1387.11 0 0 0 
9.75 13.65 1409.67 0 0 0 
11.05 13.65 1395.42 0 0 0 
12.35 13.65 1382.75 0 0 0 
13.65 13.65 1386.89 0 0 0 
14.95 13.65 1421.64 0 0 0 
16.25 13.65 1422.77 0 0 0 
17.55 13.65 1372.88 0 0 0 
18.85 13.65 1361.23 0 0 0 
0.65 14.95 1398.76 0 0 0 
1.95 14.95 1397.27 0 0 0 
3.25 14.95 1382.88 0 0 0 
4.55 14.95 1427.69 0 0 0 
5.85 14.95 1412.17 0 0 0 
7.15 14.95 1386.64 0 0 0 
8.45 14.95 1373.94 0 0 0 
9.75 14.95 1398.85 0 0 0 
11.05 14.95 1408.9 0 0 0 
12.35 14.95 1368.59 0 0 0 
13.65 14.95 1369.87 0 0 0 
14.95 14.95 1358.24 0 0 0 
16.25 14.95 1383.45 0 0 0 
17.55 14.95 1394.61 0 0 0 
18.85 14.95 1418.38 0 0 0 
0.65 16.25 1400.65 0 0 0 
1.95 16.25 1360.57 0 0 0 
3.25 16.25 1400.98 0 0 0 
4.55 16.25 1437.37 0 0 0 
5.85 16.25 1391.09 0 0 0 
7.15 16.25 1404.53 0 0 0 
8.45 16.25 1440.31 0 0 0 
9.75 16.25 1419.16 0 0 0 
11.05 16.25 1400.43 0 0 0 
12.35 16.25 1414.12 0 0 0 
13.65 16.25 1395.32 0 0 0 
14.95 16.25 1387.77 0 0 0 
16.25 16.25 1361.74 0 0 0 
17.55 16.25 1369.03 0 0 0 
18.85 16.25 1417.35 0 0 0 
0.65 17.55 1378.82 0 0 0 
1.95 17.55 1386.67 0 0 0 
3.25 17.55 1402.55 0 0 0 
4.55 17.55 1384.21 0 0 0 
5.85 17.55 1413.71 0 0 0 
7.15 17.55 1413.45 0 0 0 
8.45 17.55 1376.42 0 0 0 
9.75 17.55 1374.72 0 0 0 
11.05 17.55 1417.9 0 0 0 
12.35 17.55 1417.73 0 0 0 
13.65 17.55 1401.67 0 0 0 
14.95 17.55 1397.26 0 0 0 
16.25 17.55 1400.51 0 0 0 
17.55 17.55 1369.45 0 0 0 
18.85 17.55 1387.07 0 0 0 
0.65 18.85 1407.86 0 0 0 
1.95 18.85 1372.12 0 0 0 
3.25 18.85 1404.2 0 0 0 
4.55 18.85 1412.87 0 0 0 
5.85 18.85 1354.78 0 0 0 
7.15 18.85 1382.96 0 0 0 
8.45 18.85 1396.92 0 0 0 
9.75 18.85 1385.1 0 0 0 
11.05 18.85 1387.78 0 0 0 
12.35 18.85 1425.4 0 0 0 
13.65 18.85 1401.78 0 0 0 
14.95 18.85 1395.25 0 0 0 
16.25 18.85 1385.46 0 0 0 
17.55 18.85 1401.96 0 0 0 
18.85 18.85 1415.37 0 0 0 
ITEM: TIMESTEP
500
ITEM: NUMBER OF ATOMS
225
ITEM: BOX BOUNDS ff ff pp
0 40
0 20
-1 1
ITEM: ATOMS x y c_fd v_fs c_fg v_d1 
0.671706 0.6651 1263.57 0 0 0 
1.97392 0.655941 1270.6 0 0 0 
3.27556 0.656714 1266.79 0 0 0 
4.55728 0.656153 1310.33 0 0 0 
5.86811 0.655183 1288.29 0 0 0 
7.16699 0.661207 1282.79 0 0 0 
8.47211 0.664899 1267.27 0 0 0 
9.76663 0.668488 1273.37 0 0 0 
11.0716 0.660106 1281.81 0 0 0 
12.3774 0.667393 1261.2 0 0 0 
13.675 0.664942 1275.6 0 0 0 
14.9692 0.665807 1287.33 0 0 0 
16.2636 0.650282 1338.29 0 0 0 
17.5752 0.656379 1325.01 0 0 0 
18.8568 0.658932 1335.12 0 0 0 
0.673423 1.95389 1271.18 0 0 0 
1.96029 1.95525 1303.31 0 0 0 
3.27506 1.95171 1272.46 0 0 0 
4.55734 1.95484 1311.62 0 0 0 
5.87109 1.94002 1300.71 0 0 0 
7.17725 1.96032 1260.21 0 0 0 
8.47259 1.95818 1275.41 0 0 0 
9.7774 1.96266 1260.21 0 0 0 
11.0645 1.95849 1296.04 0 0 0 
12.3776 1.95982 1272.53 0 0 0 
13.6678 1.95498 1304.75 0 0 0 
14.9559 1.97422 1284.2 0 0 0 
16.2637 1.96174 1307.61 0 0 0 
17.5647 1.98174 1263.63 0 0 0 
18.8646 1.96805 1309.01 0 0 0 
0.671073 3.24983 1279.16 0 0 0 
1.97592 3.25179 1266.96 0 0 0 
3.26976 3.24752 1287.31 0 0 0 
4.57826 3.25686 1257.62 0 0 0 
5.86343 3.24462 1308.38 0 0 0 
7.17279 3.26196 1266.37 0 0 0 
8.47596 3.2559 1268.07 0 0 0 
9.7734 3.25547 1276.61 0 0 0 
11.0731 3.24932 1290.23 0 0 0 
12.3605 3.26068 1299.59 0 0 0 
13.6688 3.25591 1296.02 0 0 0 
14.9601 3.26108 1304.93 0 0 0 
16.2758 3.26289 1286.25 0 0 0 
17.5558 3.25254 1342.32 0 0 0 
18.8571 3.2598 1331.45 0 0 0 
0.67787 4.55119 1259.06 0 0 0 
1.96985 4.5501 1281.81 0 0 0 
3.28297 4.54874 1250.42 0 0 0 
4.56599 4.55713 1286.54 0 0 0 
5.87508 4.55726 1263.99 0 0 0 
7.17758 4.53276 1285.38 0 0 0 
8.47549 4.55274 1269.7 0 0 0 
9.77369 4.55778 1269.43 0 0 0 
11.071 4.56254 1270.83 0 0 0 
12.3691 4.56098 1278.77 0 0 0 
13.6903 4.55572 1248.52 0 0 0 
14.9769 4.55928 1275.19 0 0 0 
16.2663 4.56166 1295.48 0 0 0 
17.5712 4.56617 1289.35 0 0 0 
18.8711 4.55643 1332.14 0 0 0 
0.673656 5.86346 1262.12 0 0 0 
1.98108 5.84469 1254.56 0 0 0 
3.2754 5.85187 1265.14 0 0 0 
4.56444 5.85326 1292.81 0 0 0 
5.87265 5.85892 1267.96 0 0 0 
7.17264 5.84502 1279.33 0 0 0 
8.48218 5.86293 1240.76 0 0 0 
9.77905 5.8485 1263.15 0 0 0 
11.0804 5.86153 1247.52 0 0 0 
12.37 5.86016 1275.25 0 0 0 
13.6764 5.86396 1256.91 0 0 0 
14.9675 5.85542 1293.08 0 0 0 
16.261 5.85348 1315.15 0 0 0 
17.5748 5.86394 1282.23 0 0 0 
18.8549 5.85715 1334.4 0 0 0 
0.670831 7.14908 1275.79 0 0 0 
1.96635 7.1534 1287.14 0 0 0 
3.27598 7.14896 1263.73 0 0 0 
4.57773 7.14337 1262.17 0 0 0 
5.87805 7.15822 1254.33 0 0 0 
7.1811 7.16089 1244.97 0 0 0 
8.46993 7.14734 1281.95 0 0 0 
9.76938 7.15452 1279.24 0 0 0 
11.0838 7.16633 1234.08 0 0 0 
12.3813 7.14661 1257.73 0 0 0 
13.672 7.16114 1268.21 0 0 0 
14.9743 7.16323 1261.25 0 0 0 
16.2792 7.15669 1263.89 0 0 0 
17.5754 7.14723 1303.06 0 0 0 
18.8715 7.15566 1316.98 0 0 0 
0.66768 8.43641 1286.17 0 0 0 
1.9708 8.44765 1276.5 0 0 0 
3.2654 8.44565 1291.34 0 0 0 
4.58156 8.46158 1245.24 0 0 0 
5.87499 8.45087 1264.83 0 0 0 
7.17363 8.44772 1269.4 0 0 0 
8.4875 8.45206 1231.55 0 0 0 
9.76429 8.4432 1296.14 0 0 0 
11.0834 8.4682 1237.23 0 0 0 
12.3654 8.45657 1288.4 0 0 0 
13.6779 8.44866 1259.78 0 0 0 
14.9857 8.45543 1236.59 0 0 0 
16.2701 8.46431 1270.25 0 0 0 
17.5759 8.4609 1260.42 0 0 0 
18.8648 8.45818 1300.25 0 0 0 
0.679646 9.74847 1251.22 0 0 0 
1.97769 9.76586 1258.16 0 0 0 
3.26935 9.74094 1279.87 0 0 0 
4.58393 9.74046 1241.09 0 0 0 
5.88028 9.73802 1250.94 0 0 0 
7.17111 9.75666 1275.08 0 0 0 
8.4812 9.75913 1248.34 0 0 0 
9.76799 9.75605 1283.37 0 0 0 
11.0699 9.75763 1278.24 0 0 0 
12.3667 9.74819 1286.84 0 0 0 
13.6708 9.75372 1275.93 0 0 0 
14.9668 9.75717 1286.63 0 0 0 
16.259 9.75944 1307.46 0 0 0 
17.5766 9.76189 1260.68 0 0 0 
18.864 9.74318 1293.91 0 0 0 
0.678284 11.0493 1254.84 0 0 0 
1.9713 11.0458 1274.08 0 0 0 
3.27919 11.0438 1252.86 0 0 0 
4.58592 11.0542 1236.34 0 0 0 
5.87255 11.0467 1270.8 0 0 0 
7.16771 11.04 1282.8 0 0 0 
8.47562 11.0451 1262.35 0 0 0 
9.77149 11.0585 1276.21 0 0 0 
11.082 11.0441 1244.97 0 0 0 
12.374 11.0559 1269.48 0 0 0 
13.6694 11.0434 1278.18 0 0 0 
14.9791 11.0378 1250.36 0 0 0 
16.2693 11.0422 1277.5 0 0 0 
17.5765 11.0414 1258.53 0 0 0 
18.873 11.0403 1271.91 0 0 0 
0.672466 12.3581 1273.48 0 0 0 
1.9697 12.3479 1278.66 0 0 0 
3.25641 12.3504 1314.62 0 0 0 
4.56107 12.3453 1300.6 0 0 0 
5.87164 12.3442 1272.29 0 0 0 
7.17758 12.3464 1257.59 0 0 0 
8.47451 12.341 1263.29 0 0 0 
9.77128 12.3536 1278.47 0 0 0 
11.0687 12.3505 1283.97 0 0 0 
12.376 12.3495 1265.49 0 0 0 
13.6789 12.3497 1259.73 0 0 0 
14.9628 12.3528 1305.44 0 0 0 
16.2849 12.3344 1234.13 0 0 0 
17.5703 12.3365 1274.97 0 0 0 
18.8664 12.3375 1299.72 0 0 0 
0.675136 13.6563 1268 0 0 0 
1.97641 13.6523 1264 0 0 0 
3.26931 13.6378 1275.15 0 0 0 
4.56853 13.6513 1284.64 0 0 0 
5.87274 13.6465 1271.11 0 0 0 
7.16588 13.638 1283.38 0 0 0 
8.47599 13.6386 1257.59 0 0 0 
9.7701 13.6461 1278.93 0 0 0 
11.0757 13.6474 1267.2 0 0 0 
12.3808 13.6478 1257.4 0 0 0 
13.6755 13.64 1262.82 0 0 0 
14.9674 13.6495 1298.23 0 0 0 
16.26 13.641 1304.32 0 0 0 
17.5785 13.6356 1271.44 0 0 0 
18.8582 13.6218 1276.51 0 0 0 
0.673781 14.9433 1265.34 0 0 0 
1.97712 14.9558 1266.86 0 0 0 
3.27998 14.9474 1253.92 0 0 0 
4.56113 14.9369 1294.28 0 0 0 
5.87061 14.9504 1281.41 0 0 0 
7.1794 14.9489 1259.11 0 0 0 
8.48167 14.9425 1248.28 0 0 0 
9.77228 14.9422 1271.81 0 0 0 
11.0728 14.9509 1283.1 0 0 0 
12.3853 14.9443 1249.13 0 0 0 
13.6785 14.9346 1252.79 0 0 0 
14.9791 14.9297 1247.1 0 0 0 
16.2745 14.9373 1277.93 0 0 0 
17.5723 14.9396 1299.5 0 0 0 
18.8696 14.9458 1336.7 0 0 0 
0.675118 16.2505 1268.58 0 0 0 
1.98487 16.2376 1234.4 0 0 0 
3.27376 16.2477 1271.78 0 0 0 
4.56208 16.2516 1305.33 0 0 0 
5.87384 16.2388 1263.86 0 0 0 
7.17967 16.262 1278.53 0 0 0 
8.46398 16.2571 1311.48 0 0 0 
9.76478 16.2435 1293.24 0 0 0 
11.0714 16.2424 1278.74 0 0 0 
12.3698 16.2479 1294.53 0 0 0 
13.6814 16.2503 1282.83 0 0 0 
14.9861 16.2486 1282.39 0 0 0 
16.2661 16.2227 1263.16 0 0 0 
17.5655 16.2269 1280.78 0 0 0 
18.8545 16.2421 1336.89 0 0 0 
0.685623 17.5562 1250.94 0 0 0 
1.97935 17.5483 1260.02 0 0 0 
3.2741 17.5494 1275.07 0 0 0 
4.57736 17.5414 1259.03 0 0 0 
5.87287 17.5545 1287.46 0 0 0 
7.16647 17.5424 1287.64 0 0 0 
8.47364 17.5303 1255.32 0 0 0 
9.77838 17.5372 1256.64 0 0 0 
11.0637 17.5424 1298.07 0 0 0 
12.3616 17.5406 1301.2 0 0 0 
13.6771 17.5477 1293.14 0 0 0 
14.967 17.5376 1293.68 0 0 0 
16.2636 17.5374 1304.08 0 0 0 
17.5772 17.5313 1287.27 0 0 0 
18.8628 17.5334 1312.74 0 0 0 
0.670561 18.8449 1277.75 0 0 0 
1.98191 18.8414 1248.33 0 0 0 
3.2743 18.8504 1278.6 0 0 0 
4.56982 18.848 1287.29 0 0 0 
5.88336 18.832 1235.6 0 0 0 
7.17421 18.8359 1262.64 0 0 0 
8.47728 18.8483 1278.35 0 0 0 
9.77362 18.837 1269.23 0 0 0 
11.0689 18.8335 1274.29 0 0 0 
12.3658 18.8487 1313.13 0 0 0 
13.6712 18.8424 1296.75 0 0 0 
14.9699 18.8387 1296.65 0 0 0 
16.2651 18.8327 1294.4 0 0 0 
17.5592 18.8372 1317.57 0 0 0 
18.8573 18.8424 1339.3 0 0 0 
ITEM: TIMESTEP
1000
ITEM: NUMBER OF ATOMS
225
ITEM: BOX BOUNDS ff ff pp
0 40
0 20
-1 1
ITEM: ATOMS x y c_fd v_fs c_fg v_d1 
0.737329 0.689544 1148.06 0 0 0 
2.04062 0.672774 1156.86 0 0 0 
3.3434 0.674886 1154.49 0 0 0 
4.60819 0.674528 1194.49 0 0 0 
5.92833 0.673491 1176.5 0 0 0 
7.2256 0.685786 1173.03 0 0 0 
8.53463 0.693762 1161.35 0 0 0 
9.82331 0.701636 1169.13 0 0 0 
11.1317 0.686924 1181.03 0 0 0 
12.4413 0.701998 1166.91 0 0 0 
13.735 0.698656 1185.22 0 0 0 
15.022 0.701591 1201.63 0 0 0 
16.3088 0.673365 1254.87 0 0 0 
17.628 0.685907 1253.04 0 0 0 
18.8898 0.691369 1268.9 0 0 0 
0.741119 1.96626 1154.66 0 0 0 
2.01526 1.96939 1185.21 0 0 0 
3.34313 1.96327 1158.78 0 0 0 
4.60905 1.9699 1194.55 0 0 0 
5.93481 1.94245 1187.4 0 0 0 
7.24606 1.98196 1151.31 0 0 0 
8.53657 1.97885 1167.04 0 0 0 
9.84495 1.98848 1155.8 0 0 0 
11.1193 1.98176 1190.9 0 0 0 
12.4431 1.98566 1174.69 0 0 0 
13.7227 1.9779 1208.56 0 0 0 
14.998 2.01605 1193.87 0 0 0 
16.3102 1.99379 1224.88 0 0 0 
17.609 2.03316 1194.17 0 0 0 
18.9051 2.00793 1246.8 0 0 0 
0.737144 3.25721 1160.34 0 0 0 
2.04557 3.26142 1151.07 0 0 0 
3.33362 3.25384 1170.27 0 0 0 
4.64957 3.27225 1143.93 0 0 0 
5.92102 3.24964 1191.18 0 0 0 
7.23847 3.28347 1153.69 0 0 0 
8.54401 3.27286 1157.36 0 0 0 
9.83849 3.2731 1167.12 0 0 0 
11.137 3.26264 1182.67 0 0 0 
12.4121 3.28568 1193.06 0 0 0 
13.7263 3.27824 1195.61 0 0 0 
15.0077 3.28985 1208.83 0 0 0 
16.3349 3.29516 1202.23 0 0 0 
17.5932 3.27709 1261.5 0 0 0 
18.8915 3.29209 1264.15 0 0 0 
0.750464 4.5584 1140.87 0 0 0 
2.03449 4.55672 1162.89 0 0 0 
3.35933 4.5546 1135.21 0 0 0 
4.62683 4.5711 1167.82 0 0 0 
5.94392 4.57197 1148.26 0 0 0 
7.2484 4.52605 1170.01 0 0 0 
8.54407 4.56492 1155.81 0 0 0 
9.84016 4.57552 1156.78 0 0 0 
11.1343 4.58576 1159.71 0 0 0 
12.4299 4.5842 1169.81 0 0 0 
13.769 4.57593 1148.58 0 0 0 
15.0416 4.58469 1177.46 0 0 0 
16.3189 4.59145 1203.08 0 0 0 
17.6244 4.60231 1209.89 0 0 0 
18.919 4.5855 1264.44 0 0 0 
0.742813 5.88026 1141.97 0 0 0 
2.05626 5.84486 1137.19 0 0 0 
3.34537 5.8589 1146.76 0 0 0 
4.62439 5.86197 1171.98 0 0 0 
5.93989 5.87323 1149.79 0 0 0 
7.2397 5.84737 1161.23 0 0 0 
8.55767 5.88215 1126.39 0 0 0 
9.85139 5.85553 1148.38 0 0 0 
11.1536 5.88136 1134.94 0 0 0 
12.4331 5.88004 1161.8 0 0 0 
13.7445 5.88893 1148.21 0 0 0 
15.0259 5.87478 1185.82 0 0 0 
16.3113 5.8737 1212.89 0 0 0 
17.6337 5.89667 1196.24 0 0 0 
18.8899 5.88643 1259.13 0 0 0 
0.737702 7.15136 1153.8 0 0 0 
2.02849 7.15981 1165.35 0 0 0 
3.3468 7.15161 1144.43 0 0 0 
4.65009 7.14126 1143.34 0 0 0 
5.95064 7.16987 1136.05 0 0 0 
7.25637 7.17537 1127.77 0 0 0 
8.53499 7.15008 1161.94 0 0 0 
9.8338 7.16435 1159.7 0 0 0 
11.161 7.18761 1119.2 0 0 0 
12.4559 7.15111 1142.63 0 0 0 
13.7378 7.18008 1152.74 0 0 0 
15.0414 7.18592 1149.16 0 0 0 
16.349 7.17618 1157.77 0 0 0 
17.6385 7.16199 1205.01 0 0 0 
18.9243 7.18254 1238.15 0 0 0 
0.731877 8.42567 1162.72 0 0 0 
2.03714 8.44718 1155.24 0 0 0 
3.32686 8.4435 1168.71 0 0 0 
4.65762 8.47395 1126.87 0 0 0 
5.9451 8.45375 1144.76 0 0 0 
7.24248 8.44798 1149.02 0 0 0 
8.56887 8.45649 1114.81 0 0 0 
9.82463 8.43994 1173.51 0 0 0 
11.1609 8.48792 1119.93 0 0 0 
12.4266 8.46634 1166.65 0 0 0 
13.7504 8.45207 1141.55 0 0 0 
15.0649 8.46607 1121.27 0 0 0 
16.3346 8.48474 1152.8 0 0 0 
17.6444 8.48161 1148.96 0 0 0 
18.9181 8.48315 1202.02 0 0 0 
0.754638 9.74709 1131.02 0 0 0 
2.05032 9.7802 1138.42 0 0 0 
3.33445 9.73275 1158.06 0 0 0 
4.66222 9.73183 1122.97 0 0 0 
5.95527 9.72718 1131.89 0 0 0 
7.2378 9.76269 1153.73 0 0 0 
8.55701 9.7674 1129.54 0 0 0 
9.83185 9.76152 1161.23 0 0 0 
11.1356 9.76453 1156.59 0 0 0 
12.4293 9.74655 1164.37 0 0 0 
13.7371 9.75709 1154.5 0 0 0 
15.0295 9.76365 1164.18 0 0 0 
16.3147 9.76799 1183.02 0 0 0 
17.6483 9.77265 1140.7 0 0 0 
18.9243 9.73701 1170.77 0 0 0 
0.752034 11.0477 1134.33 0 0 0 
2.03815 11.041 1152.87 0 0 0 
3.35317 11.0371 1133.67 0 0 0 
4.66599 11.0568 1118.82 0 0 0 
5.9405 11.0424 1149.95 0 0 0 
7.23128 11.0296 1160.77 0 0 0 
8.54633 11.0391 1142.33 0 0 0 
9.83845 11.0644 1155.1 0 0 0 
11.1586 11.0369 1126.7 0 0 0 
12.4432 11.0588 1149.18 0 0 0 
13.7343 11.0347 1156.97 0 0 0 
15.0527 11.0233 1131.99 0 0 0 
16.3338 11.0305 1157.24 0 0 0 
17.647 11.0267 1142.06 0 0 0 
18.9374 11.0185 1164.3 0 0 0 
0.740875 12.3629 1151.63 0 0 0 
2.03495 12.3434 1157.44 0 0 0 
3.30962 12.3478 1190.08 0 0 0 
4.61847 12.3379 1177.4 0 0 0 
5.93857 12.3356 1151.91 0 0 0 
7.24982 12.3393 1138.85 0 0 0 
8.54391 12.3288 1144.08 0 0 0 
9.83766 12.3522 1158.5 0 0 0 
11.1326 12.3456 1163.83 0 0 0 
12.4462 12.3429 1147.89 0 0 0 
13.7515 12.342 1143.96 0 0 0 
15.0201 12.3463 1187.2 0 0 0 
16.3611 12.3088 1126.18 0 0 0 
17.6307 12.3089 1171.41 0 0 0 
18.9165 12.3055 1215.37 0 0 0 
0.745725 13.6579 1147.52 0 0 0 
2.04749 13.6501 1145.16 0 0 0 
3.3339 13.6221 1155 0 0 0 
4.63234 13.6474 1164.24 0 0 0 
5.94026 13.6379 1152.2 0 0 0 
7.22707 13.6212 1163.35 0 0 0 
8.54615 13.6216 1140.68 0 0 0 
9.83469 13.6352 1161.02 0 0 0 
11.145 13.6367 1151.71 0 0 0 
12.4542 13.6362 1144.72 0 0 0 
13.7435 13.6198 1151.48 0 0 0 
15.0268 13.6358 1187.95 0 0 0 
16.3106 13.617 1198.95 0 0 0 
17.6421 13.6033 1182.93 0 0 0 
18.8972 13.5737 1203.62 0 0 0 
0.742846 14.9316 1145.74 0 0 0 
2.04849 14.955 1149.14 0 0 0 
3.35383 14.9388 1137.53 0 0 0 
4.61778 14.9182 1173.85 0 0 0 
5.93565 14.9433 1163.5 0 0 0 
7.25216 14.9397 1144.21 0 0 0 
8.55619 14.9269 1135.16 0 0 0 
9.8379 14.9253 1157.54 0 0 0 
11.1384 14.9407 1170.2 0 0 0 
12.4614 14.9268 1142.27 0 0 0 
13.7473 14.9067 1148.32 0 0 0 
15.0467 14.8951 1148.5 0 0 0 
16.3354 14.9072 1185.14 0 0 0 
17.6273 14.9091 1216.96 0 0 0 
18.9167 14.9188 1266.95 0 0 0 
0.744989 16.244 1150.35 0 0 0 
2.0628 16.2189 1120.61 0 0 0 
3.34148 16.2377 1155.32 0 0 0 
4.61901 16.2446 1186.36 0 0 0 
5.94114 16.2195 1149.31 0 0 0 
7.25189 16.2628 1165.32 0 0 0 
8.52156 16.2525 1195.77 0 0 0 
9.82252 16.2256 1180.28 0 0 0 
11.1343 16.2223 1169.88 0 0 0 
12.4302 16.2315 1187.88 0 0 0 
13.751 16.2343 1183.15 0 0 0 
15.0579 16.2292 1189.72 0 0 0 
16.3172 16.1779 1176.8 0 0 0 
17.6123 16.184 1204.41 0 0 0 
18.8869 16.2117 1267.76 0 0 0 
0.764466 17.5534 1136.72 0 0 0 
2.05177 17.5379 1145.99 0 0 0 
3.34153 17.5394 1160.37 0 0 0 
4.64744 17.5235 1146.48 0 0 0 
5.93853 17.5478 1174.1 0 0 0 
7.22589 17.5238 1174.73 0 0 0 
8.53898 17.4999 1146.82 0 0 0 
9.84728 17.5119 1151.15 0 0 0 
11.1184 17.5205 1191.17 0 0 0 
12.4131 17.5156 1197.56 0 0 0 
13.7411 17.5277 1197.31 0 0 0 
15.0198 17.5068 1202.62 0 0 0 
16.3107 17.5048 1219.91 0 0 0 
17.6331 17.4918 1216.64 0 0 0 
18.9019 17.4949 1249.26 0 0 0 
0.735363 18.8306 1161.5 0 0 0 
2.05607 18.8235 1137.04 0 0 0 
3.34126 18.8399 1165.78 0 0 0 
4.63236 18.8347 1174.58 0 0 0 
5.95769 18.8035 1128.82 0 0 0 
7.23971 18.8099 1154.96 0 0 0 
8.54486 18.8326 1172.52 0 0 0 
9.83705 18.81 1166.01 0 0 0 
11.127 18.8022 1173.43 0 0 0 
12.4198 18.8298 1213.71 0 0 0 
13.7284 18.8165 1204.28 0 0 0 
15.0237 18.8079 1210.35 0 0 0 
16.3121 18.7952 1215.26 0 0 0 
17.5978 18.8028 1244.67 0 0 0 
18.8908 18.8119 1274.09 0 0 0 
ITEM: TIMESTEP
1500
ITEM: NUMBER OF ATOMS
225
ITEM: BOX BOUNDS ff ff pp
0 40
0 20
-1 1
ITEM: ATOMS x y c_fd v_fs c_fg v_d1 
0.842351 0.722265 1045.24 0 0 0 
2.14602 0.699331 1054.99 0 0 0 
3.4495 0.703287 1054.08 0 0 0 
4.69857 0.703816 1090.94 0 0 0 
6.02664 0.703539 1076.86 0 0 0 
7.32187 0.72229 1075.44 0 0 0 
8.6337 0.735071 1067.53 0 0 0 
9.91622 0.747841 1077.09 0 0 0 
11.2265 0.728688 1092.51 0 0 0 
12.5382 0.751976 1084.72 0 0 0 
13.8267 0.749158 1106.98 0 0 0 
15.105 0.755241 1128.01 0 0 0 
16.3825 0.716909 1183.62 0 0 0 
17.7056 0.736179 1192.57 0 0 0 
18.9463 0.744843 1213.64 0 0 0 
0.84853 1.98633 1050.63 0 0 0 
2.11065 1.99158 1079.03 0 0 0 
3.45008 1.98374 1056.74 0 0 0 
4.70088 1.9942 1089.48 0 0 0 
6.0371 1.95614 1085.97 0 0 0 
7.35248 2.01385 1054.02 0 0 0 
8.63799 2.01084 1070.41 0 0 0 
9.94881 2.02623 1063.03 0 0 0 
11.2107 2.01842 1097.7 0 0 0 
12.5428 2.02604 1088.58 0 0 0 
13.8112 2.01711 1124.27 0 0 0 
15.0729 2.07385 1115.18 0 0 0 
16.3863 2.04425 1153.63 0 0 0 
17.6799 2.1024 1135.38 0 0 0 
18.9688 2.06757 1194.71 0 0 0 
0.843584 3.27143 1054.09 0 0 0 
2.15478 3.27817 1046.74 0 0 0 
3.43739 3.26814 1064.96 0 0 0 
4.75984 3.29535 1041.75 0 0 0 
6.01855 3.26409 1085.94 0 0 0 
7.34295 3.31361 1052.64 0 0 0 
8.65013 3.29984 1058.33 0 0 0 
9.94128 3.30178 1069.42 0 0 0 
11.238 3.28867 1087.04 0 0 0 
12.5007 3.32367 1098.56 0 0 0 
13.8188 3.31546 1107.21 0 0 0 
15.0891 3.33465 1124.74 0 0 0 
16.4239 3.34501 1129.9 0 0 0 
17.6593 3.32159 1192.28 0 0 0 
18.9504 3.34475 1207.54 0 0 0 
0.863186 4.57106 1035 0 0 0 
2.13964 4.56927 1055.63 0 0 0 
3.47494 4.56694 1031.41 0 0 0 
4.72824 4.59128 1060.84 0 0 0 
6.05236 4.59343 1044.1 0 0 0 
7.35831 4.52893 1066.38 0 0 0 
8.65163 4.58568 1053.58 0 0 0 
9.94535 4.60228 1055.82 0 0 0 
11.2361 4.61865 1060.35 0 0 0 
12.5284 4.61854 1072.72 0 0 0 
13.8824 4.60933 1060.41 0 0 0 
15.1405 4.62477 1091.74 0 0 0 
16.4041 4.63772 1122.8 0 0 0 
17.7064 4.65658 1142.24 0 0 0 
18.9911 4.63508 1207.98 0 0 0 
0.8528 5.9001 1034.22 0 0 0 
2.17134 5.85001 1031.23 0 0 0 
3.45565 5.87061 1039.88 0 0 0 
4.72551 5.87561 1062.92 0 0 0 
6.04748 5.89243 1043.17 0 0 0 
7.34695 5.85637 1054.81 0 0 0 
8.67233 5.90708 1023.38 0 0 0 
9.96289 5.87032 1045.21 0 0 0 
11.2655 5.90874 1033.87 0 0 0 
12.5353 5.90876 1060.15 0 0 0 
13.8502 5.92391 1051.26 0 0 0 
15.1215 5.9068 1090.77 0 0 0 
16.3971 5.90913 1123.15 0 0 0 
17.7233 5.9465 1122.7 0 0 0 
18.9519 5.93577 1195.87 0 0 0 
0.845888 7.15655 1044.34 0 0 0 
2.13207 7.16893 1055.24 0 0 0 
3.45819 7.1576 1036.59 0 0 0 
4.76282 7.14326 1035.97 0 0 0 
6.06353 7.18462 1029.17 0 0 0 
7.37161 7.19309 1021.89 0 0 0 
8.64088 7.15772 1053.6 0 0 0 
9.93896 7.17901 1051.83 0 0 0 
11.2776 7.21338 1015.59 0 0 0 
12.5698 7.16279 1039.12 0 0 0 
13.8432 7.2061 1048.98 0 0 0 
15.147 7.21722 1048.85 0 0 0 
16.4556 7.20735 1063.9 0 0 0 
17.7357 7.19277 1120.26 0 0 0 
19.0052 7.22874 1173.02 0 0 0 
0.837819 8.41752 1051.93 0 0 0 
2.1447 8.4484 1045.54 0 0 0 
3.42999 8.44334 1057.79 0 0 0 
4.77395 8.48705 1019.79 0 0 0 
6.05602 8.45846 1036.16 0 0 0 
7.35225 8.45053 1040.14 0 0 0 
8.68995 8.46308 1009.25 0 0 0 
9.92663 8.43992 1062.65 0 0 0 
11.2785 8.509 1013.86 0 0 0 
12.5292 8.479 1056.61 0 0 0 
13.863 8.45981 1034.82 0 0 0 
15.1834 8.48147 1017.3 0 0 0 
16.4394 8.51072 1047.01 0 0 0 
17.7512 8.51128 1049.74 0 0 0 
19.0059 8.52355 1118.67 0 0 0 
0.870324 9.74584 1023.03 0 0 0 
2.16363 9.79319 1030.07 0 0 0 
3.44093 9.72534 1047.84 0 0 0 
4.78064 9.72402 1016.09 0 0 0 
6.07071 9.71737 1024.16 0 0 0 
7.34572 9.76814 1043.93 0 0 0 
8.67319 9.77488 1022.04 0 0 0 
9.93722 9.76647 1050.72 0 0 0 
11.2425 9.77078 1046.52 0 0 0 
12.5336 9.74507 1053.55 0 0 0 
13.8448 9.76013 1044.63 0 0 0 
15.1339 9.76952 1053.39 0 0 0 
16.4127 9.77572 1070.43 0 0 0 
17.7607 9.78239 1032.13 0 0 0 
19.0265 9.73143 1059.34 0 0 0 
0.866587 11.0454 1026.08 0 0 0 
2.14619 11.0357 1043.2 0 0 0 
3.46767 11.03 1025.83 0 0 0 
4.78599 11.058 1012.49 0 0 0 
6.04954 11.0373 1040.6 0 0 0 
7.33635 11.0188 1050.37 0 0 0 
8.65785 11.0321 1033.76 0 0 0 
9.94656 11.068 1045.55 0 0 0 
11.2753 11.0283 1019.72 0 0 0 
12.5533 11.0591 1040.4 0 0 0 
13.8405 11.024 1047.35 0 0 0 
15.1666 11.0068 1024.97 0 0 0 
16.4393 11.0153 1048.62 0 0 0 
17.7574 11.0063 1037.34 0 0 0 
19.0392 10.9854 1070.99 0 0 0 
0.850513 12.3648 1042.26 0 0 0 
2.14143 12.3366 1047.82 0 0 0 
3.40517 12.3426 1077.45 0 0 0 
4.71778 12.3281 1066 0 0 0 
6.04646 12.3244 1043.09 0 0 0 
7.36247 12.3292 1031.54 0 0 0 
8.65392 12.3135 1036.35 0 0 0 
9.94484 12.3462 1050.17 0 0 0 
11.2374 12.3358 1055.39 0 0 0 
12.5566 12.3307 1041.87 0 0 0 
13.8636 12.3277 1039.8 0 0 0 
15.1178 12.3314 1081.1 0 0 0 
16.4747 12.2741 1030.02 0 0 0 
17.7273 12.2686 1080.56 0 0 0 
18.997 12.2555 1145.09 0 0 0 
0.857101 13.6552 1039.45 0 0 0 
2.15899 13.6437 1037.79 0 0 0 
3.43948 13.6033 1046.44 0 0 0 
4.73711 13.6388 1055.51 0 0 0 
6.0483 13.6246 1044.86 0 0 0 
7.32926 13.6 1055.01 0 0 0 
8.65628 13.5996 1035.26 0 0 0 
9.93953 13.6179 1054.81 0 0 0 
11.2538 13.6187 1047.88 0 0 0 
12.5661 13.6161 1043.69 0 0 0 
13.8497 13.5904 1051.91 0 0 0 
15.1241 13.6102 1089.93 0 0 0 
16.3979 13.5794 1106 0 0 0 
17.7372 13.5546 1107.1 0 0 0 
18.9638 13.5077 1142.77 0 0 0 
0.852546 14.9155 1038.57 0 0 0 
2.15989 14.9484 1042.93 0 0 0 
3.46735 14.9245 1032.56 0 0 0 
4.71562 14.8944 1065.22 0 0 0 
6.04089 14.9294 1057.29 0 0 0 
7.36415 14.9233 1040.83 0 0 0 
8.66947 14.9038 1033.51 0 0 0 
9.94271 14.9002 1054.96 0 0 0 
11.2425 14.9205 1069.16 0 0 0 
12.5743 14.8984 1047.08 0 0 0 
13.8525 14.8673 1055.61 0 0 0 
15.1492 14.8477 1061.74 0 0 0 
16.4291 14.8613 1104.51 0 0 0 
17.7117 14.8604 1146.57 0 0 0 
18.9885 14.8713 1208.78 0 0 0 
0.855011 16.2311 1044.55 0 0 0 
2.17971 16.1945 1018.11 0 0 0 
3.44895 16.2206 1050.47 0 0 0 
4.7165 16.2296 1079.3 0 0 0 
6.04775 16.1928 1046.34 0 0 0 
7.36258 16.2535 1063.82 0 0 0 
8.61858 16.2375 1092.09 0 0 0 
9.91911 16.1975 1079.23 0 0 0 
11.2348 16.1909 1072.85 0 0 0 
12.5274 16.2019 1093.25 0 0 0 
13.855 16.2035 1095.43 0 0 0 
15.1618 16.1933 1109 0 0 0 
16.3998 16.1172 1102.09 0 0 0 
17.6874 16.1231 1139.43 0 0 0 
18.9444 16.1607 1209.53 0 0 0 
0.882079 17.5425 1034.63 0 0 0 
2.16316 17.5195 1043.46 0 0 0 
3.44815 17.5209 1057.31 0 0 0 
4.75618 17.4972 1045.47 0 0 0 
6.04288 17.5308 1072.51 0 0 0 
7.32416 17.4953 1073.65 0 0 0 
8.64204 17.4597 1049.92 0 0 0 
9.9528 17.4752 1057.27 0 0 0 
11.2101 17.4857 1096.25 0 0 0 
12.5008 17.4767 1105.92 0 0 0 
13.8384 17.4916 1113.36 0 0 0 
15.1049 17.4593 1123.34 0 0 0 
16.3879 17.4541 1147.34 0 0 0 
17.715 17.4335 1156.93 0 0 0 
18.9647 17.4366 1196.08 0 0 0 
0.839853 18.8081 1057.82 0 0 0 
2.16846 18.7971 1037.19 0 0 0 
3.44681 18.8195 1064.65 0 0 0 
4.73354 18.8111 1073.65 0 0 0 
6.0691 18.7653 1033.44 0 0 0 
7.34256 18.7732 1058.92 0 0 0 
8.64888 18.8042 1078.42 0 0 0 
9.93647 18.7703 1074.48 0 0 0 
11.2206 18.7574 1084.31 0 0 0 
12.5083 18.7949 1126.24 0 0 0 
13.818 18.7739 1123.53 0 0 0 
15.1082 18.7595 1135.58 0 0 0 
16.3878 18.7395 1147.3 0 0 0 
17.6631 18.7488 1182.6 0 0 0 
18.948 18.7607 1219.05 0 0 0 
ITEM: TIMESTEP
2000
ITEM: NUMBER OF ATOMS
225
ITEM: BOX BOUNDS ff ff pp
0 40
0 20
-1 1
ITEM: ATOMS x y c_fd v_fs c_fg v_d1 
0.982803 0.762317 953.57 0 0 0 
2.28643 0.734534 964.022 0 0 0 
3.5902 0.74079 964.582 0 0 0 
4.82465 0.742815 998.708 0 0 0 
6.15938 0.744047 988.415 0 0 0 
7.45219 0.769421 989.06 0 0 0 
8.76582 0.787485 984.842 0 0 0 
10.0419 0.805702 996.27 0 0 0 
11.3527 0.783814 1015.35 0 0 0 
12.6649 0.815718 1013.7 0 0 0 
13.9469 0.814696 1039.96 0 0 0 
15.2154 0.824894 1065.54 0 0 0 
16.4819 0.778755 1123.71 0 0 0 
17.8055 0.805015 1142.65 0 0 0 
19.0239 0.817126 1168.4 0 0 0 
0.991665 2.01337 957.518 0 0 0 
2.24261 2.02108 983.717 0 0 0 
3.59221 2.01233 965.337 0 0 0 
4.82902 2.02689 995.408 0 0 0 
6.17426 1.98007 995.443 0 0 0 
7.49289 2.05507 967.41 0 0 0 
8.77325 2.05312 984.625 0 0 0 
10.0855 2.07483 981.058 0 0 0 
11.3351 2.06725 1015.59 0 0 0 
12.6734 2.07965 1013.4 0 0 0 
13.93 2.07111 1051.13 0 0 0 
15.1774 2.14613 1047.47 0 0 0 
16.4891 2.11143 1093.19 0 0 0 
17.7748 2.1878 1086.67 0 0 0 
19.0535 2.14511 1152.09 0 0 0 
0.986331 3.29187 958.826 0 0 0 
2.29977 3.30138 952.954 0 0 0 
3.57726 3.2897 970.377 0 0 0 
4.90534 3.32548 950.106 0 0 0 
6.1522 3.28712 991.643 0 0 0 
7.48252 3.3516 962.282 0 0 0 
8.79067 3.33595 970.048 0 0 0 
10.0782 3.34049 982.607 0 0 0 
11.3723 3.32628 1002.46 0 0 0 
12.6227 3.37345 1015.27 0 0 0 
13.9428 3.36624 1030.07 0 0 0 
15.2011 3.39403 1051.99 0 0 0 
16.5399 3.41085 1068.66 0 0 0 
17.751 3.38419 1134.1 0 0 0 
19.0314 3.41588 1161.06 0 0 0 
1.01203 4.58867 939.858 0 0 0 
2.28144 4.58719 958.996 0 0 0 
3.62607 4.58516 937.979 0 0 0 
4.86636 4.61708 964.562 0 0 0 
6.19661 4.62103 950.49 0 0 0 
7.50358 4.54054 973.499 0 0 0 
8.79443 4.61424 962.047 0 0 0 
10.0855 4.63726 965.629 0 0 0 
11.3725 4.66036 971.863 0 0 0 
12.661 4.663 986.693 0 0 0 
14.0271 4.65477 983.283 0 0 0 
15.2703 4.67823 1017.41 0 0 0 
16.5188 4.69899 1054.1 0 0 0 
17.8142 4.72735 1085.99 0 0 0 
19.0848 4.70327 1162.32 0 0 0 
0.99953 5.92269 937.228 0 0 0 
2.32252 5.8597 935.605 0 0 0 
3.60241 5.88657 943.461 0 0 0 
4.86388 5.89374 964.548 0 0 0 
6.19158 5.91607 947.064 0 0 0 
7.49055 5.87143 959.014 0 0 0 
8.82244 5.93719 930.743 0 0 0 
10.1098 5.89219 952.655 0 0 0 
11.4123 5.94299 943.375 0 0 0 
12.6727 5.94553 969.4 0 0 0 
13.9899 5.96801 965.282 0 0 0 
15.2506 5.95038 1007.24 0 0 0 
16.5149 5.95844 1045.41 0 0 0 
17.8406 6.01193 1061.38 0 0 0 
19.0383 6.00333 1144.51 0 0 0 
0.991243 7.16437 945.74 0 0 0 
2.27314 7.18053 955.702 0 0 0 
3.60629 7.16664 939.151 0 0 0 
4.91208 7.14901 938.996 0 0 0 
6.21289 7.2022 932.622 0 0 0 
7.52302 7.21376 926.293 0 0 0 
8.7837 7.16984 955.866 0 0 0 
10.081 7.19805 954.567 0 0 0 
11.4298 7.24321 922.28 0 0 0 
12.7191 7.18106 946.227 0 0 0 
13.9844 7.23858 956.001 0 0 0 
15.2876 7.25638 959.547 0 0 0 
16.5952 7.24924 981.762 0 0 0 
17.8633 7.23828 1048.71 0 0 0 
19.1111 7.29263 1122.04 0 0 0 